
     Program PWSCF v.6.7MaX starts on  4Sep2023 at 22:16:53 

     This program is part of the open-source Quantum ESPRESSO suite
     for quantum simulation of materials; please cite
         "P. Giannozzi et al., J. Phys.:Condens. Matter 21 395502 (2009);
         "P. Giannozzi et al., J. Phys.:Condens. Matter 29 465901 (2017);
          URL http://www.quantum-espresso.org", 
     in publications or presentations arising from this work. More details at
     http://www.quantum-espresso.org/quote

     Parallel version (MPI), running on     1 processors

     MPI processes distributed on     1 nodes
     Waiting for input...
     Reading input from standard input
Warning: card O2-     8.260785   9.041040   4.322850 ignored
Warning: card O2-     2.269215   6.618960   0.872850 ignored
Warning: card O2-     7.534215   1.398960   0.872850 ignored
Warning: card O2-     7.534215   6.618960   4.322850 ignored
Warning: card H1+     1.979640  10.048500   0.921150 ignored
Warning: card H1+     8.550360   0.391500   0.921150 ignored
Warning: card H1+     0.652860   2.218500   6.096150 ignored
Warning: card H1+     4.612140   3.001500   6.096150 ignored
Warning: card H1+     1.979640   4.828500   4.371150 ignored
Warning: card H1+     7.244640  10.048500   4.371150 ignored
Warning: card H1+     7.244640   4.828500   0.921150 ignored
Warning: card H1+     8.550360   5.611500   4.371150 ignored
Warning: card H1+     3.285360   0.391500   4.371150 ignored
Warning: card H1+     3.285360   5.611500   0.921150 ignored
Warning: card H1+     0.652860   7.438500   2.646150 ignored
Warning: card H1+     5.917860   2.218500   2.646150 ignored
Warning: card H1+     5.917860   7.438500   6.096150 ignored
Warning: card H1+     4.612140   8.221500   2.646150 ignored
Warning: card H1+     9.877140   3.001500   2.646150 ignored
Warning: card H1+     9.877140   8.221500   6.096150 ignored

     Current dimensions of program PWSCF are:
     Max number of different atomic species (ntypx) = 10
     Max number of k-points (npk) =  40000
     Max angular momentum in pseudopotentials (lmaxx) =  3
     Message from routine read_pp_mesh:
     mesh size missing, using the one in header
     Message from routine read_pp_mesh:
     mesh size missing, using the one in header
     Message from routine read_pp_mesh:
     mesh size missing, using the one in header
     Message from routine read_pp_mesh:
     mesh size missing, using the one in header

     gamma-point specific algorithms are used

     Subspace diagonalization in iterative solution of the eigenvalue problem:
     a serial algorithm will be used


     G-vector sticks info
     --------------------
     sticks:   dense  smooth     PW     G-vecs:    dense   smooth      PW
     Sum        7033    3133    781               489365   145045   18167



     bravais-lattice index     =            8
     lattice parameter (alat)  =      19.8988  a.u.
     unit-cell volume          =    8586.0604 (a.u.)^3
     number of atoms/cell      =           44
     number of atomic types    =            4
     number of electrons       =       280.00
     number of Kohn-Sham states=          168
     kinetic-energy cutoff     =      25.0000  Ry
     charge density cutoff     =     225.0000  Ry
     scf convergence threshold =      1.0E-02
     mixing beta               =       0.7000
     number of iterations used =            8  plain     mixing
     Exchange-correlation= PBE
                           (   1   4   3   4   0   0   0)

     celldm(1)=  19.898816  celldm(2)=   0.991453  celldm(3)=   1.099107
     celldm(4)=   0.000000  celldm(5)=   0.000000  celldm(6)=   0.000000

     crystal axes: (cart. coord. in units of alat)
               a(1) = (   1.000000   0.000000   0.000000 )  
               a(2) = (   0.000000   0.991453   0.000000 )  
               a(3) = (   0.000000   0.000000   1.099107 )  

     reciprocal axes: (cart. coord. in units 2 pi/alat)
               b(1) = (  1.000000  0.000000  0.000000 )  
               b(2) = (  0.000000  1.008621  0.000000 )  
               b(3) = (  0.000000  0.000000  0.909829 )  


     PseudoPot. # 1 for K  read from file:
     /home/johnpaul/JP_QME/Dojo_Pseudo/nc-sr-05_pbe_stringent_upf/K.upf
     MD5 check sum: 0aa97b2c023445f040759afc9fdb6c80
     Pseudo is Norm-conserving + core correction, Zval =  9.0
     Generated using ONCVPSP code by D. R. Hamann
     Using radial grid of 2222 points,  6 beta functions with: 
                l(1) =   0
                l(2) =   0
                l(3) =   1
                l(4) =   1
                l(5) =   2
                l(6) =   2

     PseudoPot. # 2 for P  read from file:
     /home/johnpaul/JP_QME/Dojo_Pseudo/nc-sr-05_pbe_stringent_upf/P.upf
     MD5 check sum: e25a93595ed76be8dfbf715c9c2e8dc8
     Pseudo is Norm-conserving + core correction, Zval =  5.0
     Generated using ONCVPSP code by D. R. Hamann
     Using radial grid of 1298 points,  6 beta functions with: 
                l(1) =   0
                l(2) =   0
                l(3) =   1
                l(4) =   1
                l(5) =   2
                l(6) =   2

     PseudoPot. # 3 for O  read from file:
     /home/johnpaul/JP_QME/Dojo_Pseudo/nc-sr-05_pbe_stringent_upf/O.upf
     MD5 check sum: 9db02a5ece9d56b81b65a73f8163743d
     Pseudo is Norm-conserving + core correction, Zval =  6.0
     Generated using ONCVPSP code by D. R. Hamann
     Using radial grid of  936 points,  5 beta functions with: 
                l(1) =   0
                l(2) =   0
                l(3) =   1
                l(4) =   1
                l(5) =   2

     PseudoPot. # 4 for H  read from file:
     /home/johnpaul/JP_QME/Dojo_Pseudo/nc-sr-05_pbe_stringent_upf/H.upf
     MD5 check sum: e96aa7e3e4a958db16958554ea960e2a
     Pseudo is Norm-conserving, Zval =  1.0
     Generated using ONCVPSP code by D. R. Hamann
     Using radial grid of 1166 points,  3 beta functions with: 
                l(1) =   0
                l(2) =   0
                l(3) =   1

     atomic species   valence    mass     pseudopotential
        K1+            9.00    39.09830     K ( 1.00)
        P5+            5.00    30.97376     P ( 1.00)
        O2-            6.00    15.99940     O ( 1.00)
        H1+            1.00     1.00794     H ( 1.00)

     No symmetry found



   Cartesian axes

     site n.     atom                  positions (alat units)
         1           K1+ tau(   1) = (   0.0000000   0.0000000   0.3354986  )
         2           K1+ tau(   2) = (   0.2500000   0.2478632   0.1716809  )
         3           K1+ tau(   3) = (   0.0000000   0.4957265   0.0078632  )
         4           K1+ tau(   4) = (   0.5000000   0.0000000   0.0078632  )
         5           K1+ tau(   5) = (   0.5000000   0.4957265   0.3354986  )
         6           K1+ tau(   6) = (   0.2500000   0.7435897   0.4993162  )
         7           K1+ tau(   7) = (   0.7500000   0.2478632   0.4993162  )
         8           K1+ tau(   8) = (   0.7500000   0.7435897   0.1716809  )
         9           P5+ tau(   9) = (   0.0000000   0.0000000   0.0000000  )
        10           P5+ tau(  10) = (   0.2500000   0.2478632   0.4914530  )
        11           P5+ tau(  11) = (   0.0000000   0.4957265   0.3276353  )
        12           P5+ tau(  12) = (   0.5000000   0.0000000   0.3276353  )
        13           P5+ tau(  13) = (   0.5000000   0.4957265   0.0000000  )
        14           P5+ tau(  14) = (   0.2500000   0.7435897   0.1638177  )
        15           P5+ tau(  15) = (   0.7500000   0.2478632   0.1638177  )
        16           P5+ tau(  16) = (   0.7500000   0.7435897   0.4914530  )
        17           O2- tau(  17) = (   0.1160000   0.0342051   0.0858405  )
        18           O2- tau(  18) = (   0.8840000   0.9572479   0.0858405  )
        19           O2- tau(  19) = (   0.1340000   0.2820684   0.5772934  )
        20           O2- tau(  20) = (   0.3660000   0.2136581   0.5772934  )
        21           O2- tau(  21) = (   0.1160000   0.5299316   0.4134758  )
        22           O2- tau(  22) = (   0.6160000   0.0342051   0.4134758  )
        23           O2- tau(  23) = (   0.6160000   0.5299316   0.0858405  )
        24           O2- tau(  24) = (   0.8840000   0.4615214   0.4134758  )
        25           O2- tau(  25) = (   0.3840000   0.9572479   0.4134758  )
        26           O2- tau(  26) = (   0.3840000   0.4615214   0.0858405  )
        27           O2- tau(  27) = (   0.1340000   0.7777949   0.2496581  )
        28           O2- tau(  28) = (   0.6340000   0.2820684   0.2496581  )
        29           O2- tau(  29) = (   0.6340000   0.7777949   0.5772934  )
        30           O2- tau(  30) = (   0.3660000   0.7093846   0.2496581  )
        31           O2- tau(  31) = (   0.8660000   0.2136581   0.2496581  )
        32           O2- tau(  32) = (   0.8660000   0.7093846   0.5772934  )
        33           O2- tau(  33) = (   0.9655000   0.1150085   0.5743447  )
        34           O2- tau(  34) = (   0.0345000   0.8764444   0.5743447  )
        35           O2- tau(  35) = (   0.2845000   0.3628718   0.4105271  )
        36           O2- tau(  36) = (   0.2155000   0.1328547   0.4105271  )
        37           O2- tau(  37) = (   0.9655000   0.6107350   0.2467094  )
        38           O2- tau(  38) = (   0.4655000   0.1150085   0.2467094  )
        39           O2- tau(  39) = (   0.4655000   0.6107350   0.5743447  )
        40           O2- tau(  40) = (   0.0345000   0.3807179   0.2467094  )
        41           O2- tau(  41) = (   0.5345000   0.8764444   0.2467094  )
        42           O2- tau(  42) = (   0.5345000   0.3807179   0.5743447  )
        43           O2- tau(  43) = (   0.2845000   0.8585983   0.0828917  )
        44           O2- tau(  44) = (   0.7845000   0.3628718   0.0828917  )

     number of k points=     1  Gaussian smearing, width (Ry)=  0.0100
                       cart. coord. in units 2pi/alat
        k(    1) = (   0.0000000   0.0000000   0.0000000), wk =   2.0000000

     Dense  grid:   244683 G-vectors     FFT dimensions: (  96,  96, 108)

     Smooth grid:    72523 G-vectors     FFT dimensions: (  64,  64,  72)

     Estimated max dynamical RAM per process >     405.72 MB

     Check: negative core charge=   -0.000049

     Initial potential from superposition of free atoms

     starting charge  279.84487, renormalised to  280.00000
     Starting wfcs are  184 randomized atomic wfcs

     total cpu time spent up to now is       12.0 secs

     Self-consistent Calculation

     iteration #  1     ecut=    25.00 Ry     beta= 0.70
     Davidson diagonalization with overlap
     ethr =  1.00E-02,  avg # of iterations =  5.0

     total cpu time spent up to now is       19.6 secs

     total energy              =   -1480.67079038 Ry
     estimated scf accuracy    <      11.94423377 Ry

     iteration #  2     ecut=    25.00 Ry     beta= 0.70
     Davidson diagonalization with overlap
     ethr =  4.27E-03,  avg # of iterations =  5.0

     negative rho (up, down):  9.148E-05 0.000E+00

     total cpu time spent up to now is       27.3 secs

     total energy              =   -1474.80708094 Ry
     estimated scf accuracy    <     135.51489865 Ry

     iteration #  3     ecut=    25.00 Ry     beta= 0.70
     Davidson diagonalization with overlap
     ethr =  4.27E-03,  avg # of iterations =  3.0

     negative rho (up, down):  3.817E-04 0.000E+00

     total cpu time spent up to now is       33.6 secs

     total energy              =   -1486.62145828 Ry
     estimated scf accuracy    <      24.36687653 Ry

     iteration #  4     ecut=    25.00 Ry     beta= 0.70
     Davidson diagonalization with overlap
     ethr =  4.27E-03,  avg # of iterations =  3.0

     negative rho (up, down):  9.063E-04 0.000E+00

     total cpu time spent up to now is       39.0 secs

     total energy              =   -1486.49916796 Ry
     estimated scf accuracy    <      15.40435809 Ry

     iteration #  5     ecut=    25.00 Ry     beta= 0.70
     Davidson diagonalization with overlap
     ethr =  4.27E-03,  avg # of iterations =  1.0

     negative rho (up, down):  1.052E-03 0.000E+00

     total cpu time spent up to now is       43.6 secs

     total energy              =   -1486.74327378 Ry
     estimated scf accuracy    <       3.18191475 Ry

     iteration #  6     ecut=    25.00 Ry     beta= 0.70
     Davidson diagonalization with overlap
     ethr =  1.14E-03,  avg # of iterations =  6.0

     negative rho (up, down):  1.755E-03 0.000E+00

     total cpu time spent up to now is       49.8 secs

     total energy              =   -1486.72680186 Ry
     estimated scf accuracy    <      15.56816940 Ry

     iteration #  7     ecut=    25.00 Ry     beta= 0.70
     Davidson diagonalization with overlap
     ethr =  1.14E-03,  avg # of iterations =  2.0

     negative rho (up, down):  5.029E-04 0.000E+00

     total cpu time spent up to now is       54.8 secs

     total energy              =   -1486.96839477 Ry
     estimated scf accuracy    <      21.44005426 Ry

     iteration #  8     ecut=    25.00 Ry     beta= 0.70
     Davidson diagonalization with overlap
     ethr =  1.14E-03,  avg # of iterations =  2.0

     negative rho (up, down):  5.561E-06 0.000E+00

     total cpu time spent up to now is       60.6 secs

     total energy              =   -1487.05492260 Ry
     estimated scf accuracy    <      18.63950603 Ry

     iteration #  9     ecut=    25.00 Ry     beta= 0.70
     Davidson diagonalization with overlap
     ethr =  1.14E-03,  avg # of iterations =  2.0

     negative rho (up, down):  4.300E-07 0.000E+00

     total cpu time spent up to now is       66.3 secs

     total energy              =   -1487.41857774 Ry
     estimated scf accuracy    <       7.00488079 Ry

     iteration # 10     ecut=    25.00 Ry     beta= 0.70
     Davidson diagonalization with overlap
     ethr =  1.14E-03,  avg # of iterations =  1.0

     negative rho (up, down):  1.218E-06 0.000E+00

     total cpu time spent up to now is       71.0 secs

     total energy              =   -1487.52189261 Ry
     estimated scf accuracy    <       4.21793872 Ry

     iteration # 11     ecut=    25.00 Ry     beta= 0.70
     Davidson diagonalization with overlap
     ethr =  1.14E-03,  avg # of iterations =  1.0

     negative rho (up, down):  2.848E-06 0.000E+00

     total cpu time spent up to now is       75.7 secs

     total energy              =   -1487.39647345 Ry
     estimated scf accuracy    <       2.81783498 Ry

     iteration # 12     ecut=    25.00 Ry     beta= 0.70
     Davidson diagonalization with overlap
     ethr =  1.01E-03,  avg # of iterations =  1.0

     negative rho (up, down):  3.383E-06 0.000E+00

     total cpu time spent up to now is       80.6 secs

     total energy              =   -1487.46093665 Ry
     estimated scf accuracy    <       3.92453176 Ry

     iteration # 13     ecut=    25.00 Ry     beta= 0.70
     Davidson diagonalization with overlap
     ethr =  1.01E-03,  avg # of iterations =  1.0

     total cpu time spent up to now is       85.5 secs

     total energy              =   -1487.48388229 Ry
     estimated scf accuracy    <       2.61240710 Ry

     iteration # 14     ecut=    25.00 Ry     beta= 0.70
     Davidson diagonalization with overlap
     ethr =  9.33E-04,  avg # of iterations =  1.0

     total cpu time spent up to now is       90.1 secs

     total energy              =   -1487.44901138 Ry
     estimated scf accuracy    <       3.74237436 Ry

     iteration # 15     ecut=    25.00 Ry     beta= 0.70
     Davidson diagonalization with overlap
     ethr =  9.33E-04,  avg # of iterations =  1.0

     total cpu time spent up to now is       94.8 secs

     total energy              =   -1487.39121855 Ry
     estimated scf accuracy    <       5.66633382 Ry

     iteration # 16     ecut=    25.00 Ry     beta= 0.70
     Davidson diagonalization with overlap
     ethr =  9.33E-04,  avg # of iterations =  1.0

     total cpu time spent up to now is       99.8 secs

     total energy              =   -1487.52144132 Ry
     estimated scf accuracy    <       1.52960882 Ry

     iteration # 17     ecut=    25.00 Ry     beta= 0.70
     Davidson diagonalization with overlap
     ethr =  5.46E-04,  avg # of iterations =  1.0

     total cpu time spent up to now is      104.9 secs

     total energy              =   -1487.53660261 Ry
     estimated scf accuracy    <       0.89995161 Ry

     iteration # 18     ecut=    25.00 Ry     beta= 0.70
     Davidson diagonalization with overlap
     ethr =  3.21E-04,  avg # of iterations =  1.0

     total cpu time spent up to now is      110.1 secs

     total energy              =   -1487.38024035 Ry
     estimated scf accuracy    <      10.64876222 Ry

     iteration # 19     ecut=    25.00 Ry     beta= 0.70
     Davidson diagonalization with overlap
     ethr =  3.21E-04,  avg # of iterations =  1.0

     total cpu time spent up to now is      115.8 secs

     total energy              =   -1487.42342810 Ry
     estimated scf accuracy    <       5.11946986 Ry

     iteration # 20     ecut=    25.00 Ry     beta= 0.70
     Davidson diagonalization with overlap
     ethr =  3.21E-04,  avg # of iterations =  1.0

     total cpu time spent up to now is      121.1 secs

     total energy              =   -1487.43474270 Ry
     estimated scf accuracy    <       4.45346529 Ry

     iteration # 21     ecut=    25.00 Ry     beta= 0.70
     Davidson diagonalization with overlap
     ethr =  3.21E-04,  avg # of iterations =  1.0

     total cpu time spent up to now is      126.5 secs

     total energy              =   -1487.24752578 Ry
     estimated scf accuracy    <       6.68597750 Ry

     iteration # 22     ecut=    25.00 Ry     beta= 0.70
     Davidson diagonalization with overlap
     ethr =  3.21E-04,  avg # of iterations =  2.0

     total cpu time spent up to now is      132.4 secs

     total energy              =   -1487.18210729 Ry
     estimated scf accuracy    <      12.33420700 Ry

     iteration # 23     ecut=    25.00 Ry     beta= 0.70
     Davidson diagonalization with overlap
     ethr =  3.21E-04,  avg # of iterations =  2.0

     total cpu time spent up to now is      138.3 secs

     total energy              =   -1487.18214649 Ry
     estimated scf accuracy    <      15.39517125 Ry

     iteration # 24     ecut=    25.00 Ry     beta= 0.70
     Davidson diagonalization with overlap
     ethr =  3.21E-04,  avg # of iterations =  2.0

     total cpu time spent up to now is      144.2 secs

     total energy              =   -1487.44731125 Ry
     estimated scf accuracy    <       3.53483587 Ry

     iteration # 25     ecut=    25.00 Ry     beta= 0.70
     Davidson diagonalization with overlap
     ethr =  3.21E-04,  avg # of iterations =  2.0

     total cpu time spent up to now is      151.3 secs

     total energy              =   -1487.30546321 Ry
     estimated scf accuracy    <      10.80673226 Ry

     iteration # 26     ecut=    25.00 Ry     beta= 0.70
     Davidson diagonalization with overlap
     ethr =  3.21E-04,  avg # of iterations =  2.0

     total cpu time spent up to now is      158.4 secs

     total energy              =   -1487.22362339 Ry
     estimated scf accuracy    <       5.69200594 Ry

     iteration # 27     ecut=    25.00 Ry     beta= 0.70
     Davidson diagonalization with overlap
     ethr =  3.21E-04,  avg # of iterations =  3.0

     total cpu time spent up to now is      166.9 secs

     total energy              =   -1486.82601674 Ry
     estimated scf accuracy    <      22.79521196 Ry

     iteration # 28     ecut=    25.00 Ry     beta= 0.70
     Davidson diagonalization with overlap
     ethr =  3.21E-04,  avg # of iterations =  2.0

     total cpu time spent up to now is      174.3 secs

     total energy              =   -1487.10006064 Ry
     estimated scf accuracy    <      20.33027988 Ry

     iteration # 29     ecut=    25.00 Ry     beta= 0.70
     Davidson diagonalization with overlap
     ethr =  3.21E-04,  avg # of iterations =  6.0

     total cpu time spent up to now is      180.9 secs

     total energy              =   -1486.95307921 Ry
     estimated scf accuracy    <      10.71036063 Ry

     iteration # 30     ecut=    25.00 Ry     beta= 0.70
     Davidson diagonalization with overlap
     ethr =  3.21E-04,  avg # of iterations =  6.0

     total cpu time spent up to now is      189.1 secs

     total energy              =   -1486.45356277 Ry
     estimated scf accuracy    <      32.31547175 Ry

     iteration # 31     ecut=    25.00 Ry     beta= 0.70
     Davidson diagonalization with overlap
     ethr =  3.21E-04,  avg # of iterations =  3.0

     total cpu time spent up to now is      196.7 secs

     total energy              =   -1486.77785755 Ry
     estimated scf accuracy    <      17.30599690 Ry

     iteration # 32     ecut=    25.00 Ry     beta= 0.70
     Davidson diagonalization with overlap
     ethr =  3.21E-04,  avg # of iterations =  3.0

     total cpu time spent up to now is      204.5 secs

     total energy              =   -1486.85230010 Ry
     estimated scf accuracy    <      25.84888767 Ry

     iteration # 33     ecut=    25.00 Ry     beta= 0.70
     Davidson diagonalization with overlap
     ethr =  3.21E-04,  avg # of iterations =  2.0

     total cpu time spent up to now is      210.9 secs

     total energy              =   -1487.20085009 Ry
     estimated scf accuracy    <      12.53182825 Ry

     iteration # 34     ecut=    25.00 Ry     beta= 0.70
     Davidson diagonalization with overlap
     ethr =  3.21E-04,  avg # of iterations =  2.0

     total cpu time spent up to now is      216.5 secs

     total energy              =   -1486.69194434 Ry
     estimated scf accuracy    <      17.11946073 Ry

     iteration # 35     ecut=    25.00 Ry     beta= 0.70
     Davidson diagonalization with overlap
     ethr =  3.21E-04,  avg # of iterations =  5.0

     total cpu time spent up to now is      223.3 secs

     total energy              =   -1486.51199334 Ry
     estimated scf accuracy    <      24.77165391 Ry

     iteration # 36     ecut=    25.00 Ry     beta= 0.70
     Davidson diagonalization with overlap
     ethr =  3.21E-04,  avg # of iterations =  5.0

     total cpu time spent up to now is      230.3 secs

     total energy              =   -1485.40581782 Ry
     estimated scf accuracy    <      41.01436648 Ry

     iteration # 37     ecut=    25.00 Ry     beta= 0.70
     Davidson diagonalization with overlap
     ethr =  3.21E-04,  avg # of iterations =  7.0

     total cpu time spent up to now is      238.4 secs

     total energy              =   -1486.78527492 Ry
     estimated scf accuracy    <      26.58713251 Ry

     iteration # 38     ecut=    25.00 Ry     beta= 0.70
     Davidson diagonalization with overlap
     ethr =  3.21E-04,  avg # of iterations =  6.0

     total cpu time spent up to now is      245.4 secs

     total energy              =   -1486.84469080 Ry
     estimated scf accuracy    <      18.20442713 Ry

     iteration # 39     ecut=    25.00 Ry     beta= 0.70
     Davidson diagonalization with overlap
     ethr =  3.21E-04,  avg # of iterations =  9.0

     total cpu time spent up to now is      252.2 secs

     total energy              =   -1486.59721365 Ry
     estimated scf accuracy    <      23.18935709 Ry

     iteration # 40     ecut=    25.00 Ry     beta= 0.70
     Davidson diagonalization with overlap
     ethr =  3.21E-04,  avg # of iterations =  7.0

     total cpu time spent up to now is      259.0 secs

     total energy              =   -1486.91726744 Ry
     estimated scf accuracy    <      18.37774060 Ry

     iteration # 41     ecut=    25.00 Ry     beta= 0.70
     Davidson diagonalization with overlap
     ethr =  3.21E-04,  avg # of iterations =  6.0

     total cpu time spent up to now is      265.7 secs

     total energy              =   -1486.44648275 Ry
     estimated scf accuracy    <      24.27856384 Ry

     iteration # 42     ecut=    25.00 Ry     beta= 0.70
     Davidson diagonalization with overlap
     ethr =  3.21E-04,  avg # of iterations =  8.0

     total cpu time spent up to now is      272.1 secs

     total energy              =   -1486.04484470 Ry
     estimated scf accuracy    <      24.65366198 Ry

     iteration # 43     ecut=    25.00 Ry     beta= 0.70
     Davidson diagonalization with overlap
     ethr =  3.21E-04,  avg # of iterations = 19.0

     total cpu time spent up to now is      280.3 secs

     total energy              =   -1487.27633245 Ry
     estimated scf accuracy    <      24.29601673 Ry

     iteration # 44     ecut=    25.00 Ry     beta= 0.70
     Davidson diagonalization with overlap
     ethr =  3.21E-04,  avg # of iterations =  7.0

     total cpu time spent up to now is      288.9 secs

     total energy              =   -1486.76088141 Ry
     estimated scf accuracy    <      22.76361254 Ry

     iteration # 45     ecut=    25.00 Ry     beta= 0.70
     Davidson diagonalization with overlap
     ethr =  3.21E-04,  avg # of iterations =  7.0

     total cpu time spent up to now is      296.2 secs

     total energy              =   -1486.26588185 Ry
     estimated scf accuracy    <      29.39415741 Ry

     iteration # 46     ecut=    25.00 Ry     beta= 0.70
     Davidson diagonalization with overlap
     ethr =  3.21E-04,  avg # of iterations =  6.0

     total cpu time spent up to now is      304.2 secs

     total energy              =   -1485.99112152 Ry
     estimated scf accuracy    <      37.08765305 Ry

     iteration # 47     ecut=    25.00 Ry     beta= 0.70
     Davidson diagonalization with overlap
     ethr =  3.21E-04,  avg # of iterations =  3.0

     total cpu time spent up to now is      310.7 secs

     total energy              =   -1486.89406014 Ry
     estimated scf accuracy    <      17.14991763 Ry

     iteration # 48     ecut=    25.00 Ry     beta= 0.70
     Davidson diagonalization with overlap
     ethr =  3.21E-04,  avg # of iterations =  9.0

     total cpu time spent up to now is      318.6 secs

     total energy              =   -1486.76281644 Ry
     estimated scf accuracy    <      27.31505783 Ry

     iteration # 49     ecut=    25.00 Ry     beta= 0.70
     Davidson diagonalization with overlap
     ethr =  3.21E-04,  avg # of iterations =  8.0

     total cpu time spent up to now is      325.8 secs

     total energy              =   -1486.59768398 Ry
     estimated scf accuracy    <      16.86232716 Ry

     iteration # 50     ecut=    25.00 Ry     beta= 0.70
     Davidson diagonalization with overlap
     ethr =  3.21E-04,  avg # of iterations =  7.0

     total cpu time spent up to now is      332.3 secs

     total energy              =   -1485.34353494 Ry
     estimated scf accuracy    <      48.26962027 Ry

     iteration # 51     ecut=    25.00 Ry     beta= 0.70
     Davidson diagonalization with overlap
     ethr =  3.21E-04,  avg # of iterations =  8.0

     total cpu time spent up to now is      341.3 secs

     total energy              =   -1485.59931519 Ry
     estimated scf accuracy    <      36.78898556 Ry

     iteration # 52     ecut=    25.00 Ry     beta= 0.70
     Davidson diagonalization with overlap
     ethr =  3.21E-04,  avg # of iterations =  8.0

     total cpu time spent up to now is      352.3 secs

     total energy              =   -1486.17407865 Ry
     estimated scf accuracy    <      35.12300943 Ry

     iteration # 53     ecut=    25.00 Ry     beta= 0.70
     Davidson diagonalization with overlap
     ethr =  3.21E-04,  avg # of iterations =  6.0

     total cpu time spent up to now is      364.1 secs

     total energy              =   -1487.26701995 Ry
     estimated scf accuracy    <      12.51630804 Ry

     iteration # 54     ecut=    25.00 Ry     beta= 0.70
     Davidson diagonalization with overlap
     ethr =  3.21E-04,  avg # of iterations =  2.0

     total cpu time spent up to now is      372.6 secs

     total energy              =   -1486.98968369 Ry
     estimated scf accuracy    <      11.23071864 Ry

     iteration # 55     ecut=    25.00 Ry     beta= 0.70
     Davidson diagonalization with overlap
     ethr =  3.21E-04,  avg # of iterations =  9.0

     total cpu time spent up to now is      381.0 secs

     total energy              =   -1485.94159883 Ry
     estimated scf accuracy    <      39.60760878 Ry

     iteration # 56     ecut=    25.00 Ry     beta= 0.70
     Davidson diagonalization with overlap
     ethr =  3.21E-04,  avg # of iterations =  6.0

     total cpu time spent up to now is      389.1 secs

     total energy              =   -1485.79552031 Ry
     estimated scf accuracy    <      35.35509585 Ry

     iteration # 57     ecut=    25.00 Ry     beta= 0.70
     Davidson diagonalization with overlap
     ethr =  3.21E-04,  avg # of iterations =  7.0

     total cpu time spent up to now is      397.6 secs

     total energy              =   -1486.98133756 Ry
     estimated scf accuracy    <      19.42427403 Ry

     iteration # 58     ecut=    25.00 Ry     beta= 0.70
     Davidson diagonalization with overlap
     ethr =  3.21E-04,  avg # of iterations =  8.0

     total cpu time spent up to now is      405.4 secs

     total energy              =   -1486.77515217 Ry
     estimated scf accuracy    <      24.79279273 Ry

     iteration # 59     ecut=    25.00 Ry     beta= 0.70
     Davidson diagonalization with overlap
     ethr =  3.21E-04,  avg # of iterations = 10.0

     total cpu time spent up to now is      413.9 secs

     total energy              =   -1486.61531121 Ry
     estimated scf accuracy    <      20.93357502 Ry

     iteration # 60     ecut=    25.00 Ry     beta= 0.70
     Davidson diagonalization with overlap
     ethr =  3.21E-04,  avg # of iterations =  7.0

     total cpu time spent up to now is      421.3 secs

     total energy              =   -1486.46177179 Ry
     estimated scf accuracy    <      29.99430711 Ry

     iteration # 61     ecut=    25.00 Ry     beta= 0.70
     Davidson diagonalization with overlap
     ethr =  3.21E-04,  avg # of iterations =  7.0

     total cpu time spent up to now is      428.3 secs

     total energy              =   -1486.29240430 Ry
     estimated scf accuracy    <      28.90369504 Ry

     iteration # 62     ecut=    25.00 Ry     beta= 0.70
     Davidson diagonalization with overlap
     ethr =  3.21E-04,  avg # of iterations =  9.0

     total cpu time spent up to now is      435.2 secs

     total energy              =   -1486.39397341 Ry
     estimated scf accuracy    <      24.38841403 Ry

     iteration # 63     ecut=    25.00 Ry     beta= 0.70
     Davidson diagonalization with overlap
     ethr =  3.21E-04,  avg # of iterations =  9.0

     total cpu time spent up to now is      441.9 secs

     total energy              =   -1486.64336743 Ry
     estimated scf accuracy    <      25.28037402 Ry

     iteration # 64     ecut=    25.00 Ry     beta= 0.70
     Davidson diagonalization with overlap
     ethr =  3.21E-04,  avg # of iterations =  9.0

     total cpu time spent up to now is      449.6 secs

     total energy              =   -1485.79090757 Ry
     estimated scf accuracy    <      44.40536227 Ry

     iteration # 65     ecut=    25.00 Ry     beta= 0.70
     Davidson diagonalization with overlap
     ethr =  3.21E-04,  avg # of iterations =  6.0

     total cpu time spent up to now is      456.9 secs

     total energy              =   -1485.97176608 Ry
     estimated scf accuracy    <      38.69210412 Ry

     iteration # 66     ecut=    25.00 Ry     beta= 0.70
     Davidson diagonalization with overlap
     ethr =  3.21E-04,  avg # of iterations =  5.0

     total cpu time spent up to now is      463.3 secs

     total energy              =   -1485.91623594 Ry
     estimated scf accuracy    <      36.34072357 Ry

     iteration # 67     ecut=    25.00 Ry     beta= 0.70
     Davidson diagonalization with overlap
     ethr =  3.21E-04,  avg # of iterations =  6.0

     total cpu time spent up to now is      469.6 secs

     total energy              =   -1486.74207601 Ry
     estimated scf accuracy    <      18.45759338 Ry

     iteration # 68     ecut=    25.00 Ry     beta= 0.70
     Davidson diagonalization with overlap
     ethr =  3.21E-04,  avg # of iterations =  3.0

     total cpu time spent up to now is      475.2 secs

     total energy              =   -1486.58999519 Ry
     estimated scf accuracy    <      29.33161694 Ry

     iteration # 69     ecut=    25.00 Ry     beta= 0.70
     Davidson diagonalization with overlap
     ethr =  3.21E-04,  avg # of iterations =  9.0

     total cpu time spent up to now is      481.5 secs

     total energy              =   -1486.35341019 Ry
     estimated scf accuracy    <      19.35453745 Ry

     iteration # 70     ecut=    25.00 Ry     beta= 0.70
     Davidson diagonalization with overlap
     ethr =  3.21E-04,  avg # of iterations =  6.0

     total cpu time spent up to now is      487.9 secs

     total energy              =   -1485.58099433 Ry
     estimated scf accuracy    <      45.56711673 Ry

     iteration # 71     ecut=    25.00 Ry     beta= 0.70
     Davidson diagonalization with overlap
     ethr =  3.21E-04,  avg # of iterations =  8.0

     total cpu time spent up to now is      494.9 secs

     total energy              =   -1485.42912105 Ry
     estimated scf accuracy    <      42.46067788 Ry

     iteration # 72     ecut=    25.00 Ry     beta= 0.70
     Davidson diagonalization with overlap
     ethr =  3.21E-04,  avg # of iterations = 13.0

     total cpu time spent up to now is      503.3 secs

     total energy              =   -1486.11428432 Ry
     estimated scf accuracy    <      34.76251505 Ry

     iteration # 73     ecut=    25.00 Ry     beta= 0.70
     Davidson diagonalization with overlap
     ethr =  3.21E-04,  avg # of iterations =  5.0

     total cpu time spent up to now is      509.6 secs

     total energy              =   -1487.04282141 Ry
     estimated scf accuracy    <      23.94252372 Ry

     iteration # 74     ecut=    25.00 Ry     beta= 0.70
     Davidson diagonalization with overlap
     ethr =  3.21E-04,  avg # of iterations =  2.0

     total cpu time spent up to now is      515.2 secs

     total energy              =   -1486.71577721 Ry
     estimated scf accuracy    <      24.01243641 Ry

     iteration # 75     ecut=    25.00 Ry     beta= 0.70
     Davidson diagonalization with overlap
     ethr =  3.21E-04,  avg # of iterations =  7.0

     total cpu time spent up to now is      522.2 secs

     total energy              =   -1485.57558334 Ry
     estimated scf accuracy    <      52.99172332 Ry

     iteration # 76     ecut=    25.00 Ry     beta= 0.70
     Davidson diagonalization with overlap
     ethr =  3.21E-04,  avg # of iterations =  6.0

     total cpu time spent up to now is      529.0 secs

     total energy              =   -1485.46497080 Ry
     estimated scf accuracy    <      44.79052404 Ry

     iteration # 77     ecut=    25.00 Ry     beta= 0.70
     Davidson diagonalization with overlap
     ethr =  3.21E-04,  avg # of iterations =  6.0

     total cpu time spent up to now is      535.6 secs

     total energy              =   -1486.37952959 Ry
     estimated scf accuracy    <      21.31461261 Ry

     iteration # 78     ecut=    25.00 Ry     beta= 0.70
     Davidson diagonalization with overlap
     ethr =  3.21E-04,  avg # of iterations =  6.0

     total cpu time spent up to now is      541.9 secs

     total energy              =   -1486.50806650 Ry
     estimated scf accuracy    <      32.76180455 Ry

     iteration # 79     ecut=    25.00 Ry     beta= 0.70
     Davidson diagonalization with overlap
     ethr =  3.21E-04,  avg # of iterations =  9.0

     total cpu time spent up to now is      548.3 secs

     total energy              =   -1486.18803916 Ry
     estimated scf accuracy    <      19.86454663 Ry

     iteration # 80     ecut=    25.00 Ry     beta= 0.70
     Davidson diagonalization with overlap
     ethr =  3.21E-04,  avg # of iterations =  7.0

     total cpu time spent up to now is      554.8 secs

     total energy              =   -1485.76115511 Ry
     estimated scf accuracy    <      45.64730302 Ry

     iteration # 81     ecut=    25.00 Ry     beta= 0.70
     Davidson diagonalization with overlap
     ethr =  3.21E-04,  avg # of iterations =  5.0

     total cpu time spent up to now is      561.2 secs

     total energy              =   -1485.98100985 Ry
     estimated scf accuracy    <      35.41872911 Ry

     iteration # 82     ecut=    25.00 Ry     beta= 0.70
     Davidson diagonalization with overlap
     ethr =  3.21E-04,  avg # of iterations = 10.0

     total cpu time spent up to now is      568.3 secs

     total energy              =   -1486.12573995 Ry
     estimated scf accuracy    <      36.87638295 Ry

     iteration # 83     ecut=    25.00 Ry     beta= 0.70
     Davidson diagonalization with overlap
     ethr =  3.21E-04,  avg # of iterations =  7.0

     total cpu time spent up to now is      574.8 secs

     total energy              =   -1486.78285502 Ry
     estimated scf accuracy    <      25.75473213 Ry

     iteration # 84     ecut=    25.00 Ry     beta= 0.70
     Davidson diagonalization with overlap
     ethr =  3.21E-04,  avg # of iterations =  5.0

     total cpu time spent up to now is      580.9 secs

     total energy              =   -1486.12678418 Ry
     estimated scf accuracy    <      34.77719281 Ry

     iteration # 85     ecut=    25.00 Ry     beta= 0.70
     Davidson diagonalization with overlap
     ethr =  3.21E-04,  avg # of iterations =  8.0

     total cpu time spent up to now is      587.7 secs

     total energy              =   -1485.58678579 Ry
     estimated scf accuracy    <      54.56382332 Ry

     iteration # 86     ecut=    25.00 Ry     beta= 0.70
     Davidson diagonalization with overlap
     ethr =  3.21E-04,  avg # of iterations =  6.0

     total cpu time spent up to now is      594.3 secs

     total energy              =   -1485.47203901 Ry
     estimated scf accuracy    <      44.53033469 Ry

     iteration # 87     ecut=    25.00 Ry     beta= 0.70
     Davidson diagonalization with overlap
     ethr =  3.21E-04,  avg # of iterations =  6.0

     total cpu time spent up to now is      601.3 secs

     total energy              =   -1486.64790364 Ry
     estimated scf accuracy    <      20.96617048 Ry

     iteration # 88     ecut=    25.00 Ry     beta= 0.70
     Davidson diagonalization with overlap
     ethr =  3.21E-04,  avg # of iterations =  6.0

     total cpu time spent up to now is      607.7 secs

     total energy              =   -1486.67757923 Ry
     estimated scf accuracy    <      29.39143037 Ry

     iteration # 89     ecut=    25.00 Ry     beta= 0.70
     Davidson diagonalization with overlap
     ethr =  3.21E-04,  avg # of iterations = 10.0

     total cpu time spent up to now is      613.9 secs

     total energy              =   -1486.00009542 Ry
     estimated scf accuracy    <      22.81685549 Ry

     iteration # 90     ecut=    25.00 Ry     beta= 0.70
     Davidson diagonalization with overlap
     ethr =  3.21E-04,  avg # of iterations =  7.0

     total cpu time spent up to now is      620.9 secs

     total energy              =   -1485.68258924 Ry
     estimated scf accuracy    <      46.20144959 Ry

     iteration # 91     ecut=    25.00 Ry     beta= 0.70
     Davidson diagonalization with overlap
     ethr =  3.21E-04,  avg # of iterations =  6.0

     total cpu time spent up to now is      627.7 secs

     total energy              =   -1485.91261530 Ry
     estimated scf accuracy    <      37.28100629 Ry

     iteration # 92     ecut=    25.00 Ry     beta= 0.70
     Davidson diagonalization with overlap
     ethr =  3.21E-04,  avg # of iterations =  6.0

     total cpu time spent up to now is      634.4 secs

     total energy              =   -1486.05979882 Ry
     estimated scf accuracy    <      34.67193682 Ry

     iteration # 93     ecut=    25.00 Ry     beta= 0.70
     Davidson diagonalization with overlap
     ethr =  3.21E-04,  avg # of iterations =  5.0

     total cpu time spent up to now is      640.6 secs

     total energy              =   -1486.78137792 Ry
     estimated scf accuracy    <      25.92285276 Ry

     iteration # 94     ecut=    25.00 Ry     beta= 0.70
     Davidson diagonalization with overlap
     ethr =  3.21E-04,  avg # of iterations =  6.0

     total cpu time spent up to now is      647.1 secs

     total energy              =   -1486.19944213 Ry
     estimated scf accuracy    <      37.42932784 Ry

     iteration # 95     ecut=    25.00 Ry     beta= 0.70
     Davidson diagonalization with overlap
     ethr =  3.21E-04,  avg # of iterations =  6.0

     total cpu time spent up to now is      653.7 secs

     total energy              =   -1485.71794224 Ry
     estimated scf accuracy    <      56.84339204 Ry

     iteration # 96     ecut=    25.00 Ry     beta= 0.70
     Davidson diagonalization with overlap
     ethr =  3.21E-04,  avg # of iterations =  6.0

     total cpu time spent up to now is      660.3 secs

     total energy              =   -1485.44437969 Ry
     estimated scf accuracy    <      42.89636737 Ry

     iteration # 97     ecut=    25.00 Ry     beta= 0.70
     Davidson diagonalization with overlap
     ethr =  3.21E-04,  avg # of iterations =  6.0

     total cpu time spent up to now is      666.8 secs

     total energy              =   -1486.56123471 Ry
     estimated scf accuracy    <      20.69134524 Ry

     iteration # 98     ecut=    25.00 Ry     beta= 0.70
     Davidson diagonalization with overlap
     ethr =  3.21E-04,  avg # of iterations =  6.0

     total cpu time spent up to now is      673.1 secs

     total energy              =   -1486.47998847 Ry
     estimated scf accuracy    <      32.66960571 Ry

     iteration # 99     ecut=    25.00 Ry     beta= 0.70
     Davidson diagonalization with overlap
     ethr =  3.21E-04,  avg # of iterations =  9.0

     total cpu time spent up to now is      679.7 secs

     total energy              =   -1486.05424343 Ry
     estimated scf accuracy    <      21.72102717 Ry

     iteration #100     ecut=    25.00 Ry     beta= 0.70
     Davidson diagonalization with overlap
     ethr =  3.21E-04,  avg # of iterations =  7.0

     total cpu time spent up to now is      686.3 secs

     total energy              =   -1485.71664041 Ry
     estimated scf accuracy    <      45.55569712 Ry

     iteration #101     ecut=    25.00 Ry     beta= 0.70
     Davidson diagonalization with overlap
     ethr =  3.21E-04,  avg # of iterations =  5.0

     total cpu time spent up to now is      692.5 secs

     total energy              =   -1485.73123531 Ry
     estimated scf accuracy    <      36.98224832 Ry

     iteration #102     ecut=    25.00 Ry     beta= 0.70
     Davidson diagonalization with overlap
     ethr =  3.21E-04,  avg # of iterations =  6.0

     total cpu time spent up to now is      699.2 secs

     total energy              =   -1485.89891225 Ry
     estimated scf accuracy    <      35.57360195 Ry

     iteration #103     ecut=    25.00 Ry     beta= 0.70
     Davidson diagonalization with overlap
     ethr =  3.21E-04,  avg # of iterations =  5.0

     total cpu time spent up to now is      705.3 secs

     total energy              =   -1486.90737622 Ry
     estimated scf accuracy    <      25.47023883 Ry

     iteration #104     ecut=    25.00 Ry     beta= 0.70
     Davidson diagonalization with overlap
     ethr =  3.21E-04,  avg # of iterations =  5.0

     total cpu time spent up to now is      711.6 secs

     total energy              =   -1486.43886498 Ry
     estimated scf accuracy    <      37.00301191 Ry

     iteration #105     ecut=    25.00 Ry     beta= 0.70
     Davidson diagonalization with overlap
     ethr =  3.21E-04,  avg # of iterations =  6.0

     total cpu time spent up to now is      718.1 secs

     total energy              =   -1485.83425390 Ry
     estimated scf accuracy    <      54.37314082 Ry

     iteration #106     ecut=    25.00 Ry     beta= 0.70
     Davidson diagonalization with overlap
     ethr =  3.21E-04,  avg # of iterations =  6.0

     total cpu time spent up to now is      724.9 secs

     total energy              =   -1485.22758313 Ry
     estimated scf accuracy    <      45.51733006 Ry

     iteration #107     ecut=    25.00 Ry     beta= 0.70
     Davidson diagonalization with overlap
     ethr =  3.21E-04,  avg # of iterations =  9.0

     total cpu time spent up to now is      731.8 secs

     total energy              =   -1486.59573737 Ry
     estimated scf accuracy    <      21.32647798 Ry

     iteration #108     ecut=    25.00 Ry     beta= 0.70
     Davidson diagonalization with overlap
     ethr =  3.21E-04,  avg # of iterations =  6.0

     total cpu time spent up to now is      738.1 secs

     total energy              =   -1486.44366186 Ry
     estimated scf accuracy    <      32.68909291 Ry

     iteration #109     ecut=    25.00 Ry     beta= 0.70
     Davidson diagonalization with overlap
     ethr =  3.21E-04,  avg # of iterations =  9.0

     total cpu time spent up to now is      744.3 secs

     total energy              =   -1486.10086639 Ry
     estimated scf accuracy    <      21.41829811 Ry

     iteration #110     ecut=    25.00 Ry     beta= 0.70
     Davidson diagonalization with overlap
     ethr =  3.21E-04,  avg # of iterations =  7.0

     total cpu time spent up to now is      750.9 secs

     total energy              =   -1485.73628905 Ry
     estimated scf accuracy    <      46.12415967 Ry

     iteration #111     ecut=    25.00 Ry     beta= 0.70
     Davidson diagonalization with overlap
     ethr =  3.21E-04,  avg # of iterations =  5.0

     total cpu time spent up to now is      757.4 secs

     total energy              =   -1485.56465520 Ry
     estimated scf accuracy    <      38.88876103 Ry

     iteration #112     ecut=    25.00 Ry     beta= 0.70
     Davidson diagonalization with overlap
     ethr =  3.21E-04,  avg # of iterations =  6.0

     total cpu time spent up to now is      764.0 secs

     total energy              =   -1485.96317707 Ry
     estimated scf accuracy    <      37.04257217 Ry

     iteration #113     ecut=    25.00 Ry     beta= 0.70
     Davidson diagonalization with overlap
     ethr =  3.21E-04,  avg # of iterations =  3.0

     total cpu time spent up to now is      770.1 secs

     total energy              =   -1486.98031163 Ry
     estimated scf accuracy    <      24.82427354 Ry

     iteration #114     ecut=    25.00 Ry     beta= 0.70
     Davidson diagonalization with overlap
     ethr =  3.21E-04,  avg # of iterations =  3.0

     total cpu time spent up to now is      776.0 secs

     total energy              =   -1486.41772260 Ry
     estimated scf accuracy    <      36.29223351 Ry

     iteration #115     ecut=    25.00 Ry     beta= 0.70
     Davidson diagonalization with overlap
     ethr =  3.21E-04,  avg # of iterations =  5.0

     total cpu time spent up to now is      782.3 secs

     total energy              =   -1485.81990954 Ry
     estimated scf accuracy    <      53.84651930 Ry

     iteration #116     ecut=    25.00 Ry     beta= 0.70
     Davidson diagonalization with overlap
     ethr =  3.21E-04,  avg # of iterations =  6.0

     total cpu time spent up to now is      788.8 secs

     total energy              =   -1485.15502725 Ry
     estimated scf accuracy    <      46.29940983 Ry

     iteration #117     ecut=    25.00 Ry     beta= 0.70
     Davidson diagonalization with overlap
     ethr =  3.21E-04,  avg # of iterations =  9.0

     total cpu time spent up to now is      795.7 secs

     total energy              =   -1486.58260363 Ry
     estimated scf accuracy    <      23.31087865 Ry

     iteration #118     ecut=    25.00 Ry     beta= 0.70
     Davidson diagonalization with overlap
     ethr =  3.21E-04,  avg # of iterations =  6.0

     total cpu time spent up to now is      802.0 secs

     total energy              =   -1486.33599304 Ry
     estimated scf accuracy    <      32.35450133 Ry

     iteration #119     ecut=    25.00 Ry     beta= 0.70
     Davidson diagonalization with overlap
     ethr =  3.21E-04,  avg # of iterations =  9.0

     total cpu time spent up to now is      808.9 secs

     total energy              =   -1486.08283337 Ry
     estimated scf accuracy    <      22.25633244 Ry

     iteration #120     ecut=    25.00 Ry     beta= 0.70
     Davidson diagonalization with overlap
     ethr =  3.21E-04,  avg # of iterations =  6.0

     total cpu time spent up to now is      815.5 secs

     total energy              =   -1485.80102426 Ry
     estimated scf accuracy    <      46.26571576 Ry

     iteration #121     ecut=    25.00 Ry     beta= 0.70
     Davidson diagonalization with overlap
     ethr =  3.21E-04,  avg # of iterations =  6.0

     total cpu time spent up to now is      822.1 secs

     total energy              =   -1485.66414676 Ry
     estimated scf accuracy    <      38.81291089 Ry

     iteration #122     ecut=    25.00 Ry     beta= 0.70
     Davidson diagonalization with overlap
     ethr =  3.21E-04,  avg # of iterations =  6.0

     total cpu time spent up to now is      828.8 secs

     total energy              =   -1486.01522505 Ry
     estimated scf accuracy    <      37.16608188 Ry

     iteration #123     ecut=    25.00 Ry     beta= 0.70
     Davidson diagonalization with overlap
     ethr =  3.21E-04,  avg # of iterations =  5.0

     total cpu time spent up to now is      835.7 secs

     total energy              =   -1486.98973488 Ry
     estimated scf accuracy    <      24.83175444 Ry

     iteration #124     ecut=    25.00 Ry     beta= 0.70
     Davidson diagonalization with overlap
     ethr =  3.21E-04,  avg # of iterations =  3.0

     total cpu time spent up to now is      842.5 secs

     total energy              =   -1486.27214326 Ry
     estimated scf accuracy    <      36.08940687 Ry

     iteration #125     ecut=    25.00 Ry     beta= 0.70
     Davidson diagonalization with overlap
     ethr =  3.21E-04,  avg # of iterations =  5.0

     total cpu time spent up to now is      849.7 secs

     total energy              =   -1485.81608033 Ry
     estimated scf accuracy    <      54.54628386 Ry

     iteration #126     ecut=    25.00 Ry     beta= 0.70
     Davidson diagonalization with overlap
     ethr =  3.21E-04,  avg # of iterations =  6.0

     total cpu time spent up to now is      856.6 secs

     total energy              =   -1485.20198571 Ry
     estimated scf accuracy    <      46.42990460 Ry

     iteration #127     ecut=    25.00 Ry     beta= 0.70
     Davidson diagonalization with overlap
     ethr =  3.21E-04,  avg # of iterations =  8.0

     total cpu time spent up to now is      863.5 secs

     total energy              =   -1486.55365070 Ry
     estimated scf accuracy    <      23.20167902 Ry

     iteration #128     ecut=    25.00 Ry     beta= 0.70
     Davidson diagonalization with overlap
     ethr =  3.21E-04,  avg # of iterations =  6.0

     total cpu time spent up to now is      870.2 secs

     total energy              =   -1486.21476465 Ry
     estimated scf accuracy    <      32.79228997 Ry

     iteration #129     ecut=    25.00 Ry     beta= 0.70
     Davidson diagonalization with overlap
     ethr =  3.21E-04,  avg # of iterations =  9.0

     total cpu time spent up to now is      876.5 secs

     total energy              =   -1486.05312771 Ry
     estimated scf accuracy    <      23.56262107 Ry

     iteration #130     ecut=    25.00 Ry     beta= 0.70
     Davidson diagonalization with overlap
     ethr =  3.21E-04,  avg # of iterations =  7.0

     total cpu time spent up to now is      883.2 secs

     total energy              =   -1485.85381277 Ry
     estimated scf accuracy    <      46.55353962 Ry

     iteration #131     ecut=    25.00 Ry     beta= 0.70
     Davidson diagonalization with overlap
     ethr =  3.21E-04,  avg # of iterations =  5.0

     total cpu time spent up to now is      890.3 secs

     total energy              =   -1485.82677367 Ry
     estimated scf accuracy    <      37.68993006 Ry

     iteration #132     ecut=    25.00 Ry     beta= 0.70
     Davidson diagonalization with overlap
     ethr =  3.21E-04,  avg # of iterations =  5.0

     total cpu time spent up to now is      897.0 secs

     total energy              =   -1486.06964537 Ry
     estimated scf accuracy    <      35.97342302 Ry

     iteration #133     ecut=    25.00 Ry     beta= 0.70
     Davidson diagonalization with overlap
     ethr =  3.21E-04,  avg # of iterations =  3.0

     total cpu time spent up to now is      903.1 secs

     total energy              =   -1486.96910549 Ry
     estimated scf accuracy    <      24.49507406 Ry

     iteration #134     ecut=    25.00 Ry     beta= 0.70
     Davidson diagonalization with overlap
     ethr =  3.21E-04,  avg # of iterations =  3.0

     total cpu time spent up to now is      909.4 secs

     total energy              =   -1486.19961594 Ry
     estimated scf accuracy    <      36.84993887 Ry

     iteration #135     ecut=    25.00 Ry     beta= 0.70
     Davidson diagonalization with overlap
     ethr =  3.21E-04,  avg # of iterations =  5.0

     total cpu time spent up to now is      916.1 secs

     total energy              =   -1485.84994093 Ry
     estimated scf accuracy    <      54.62627954 Ry

     iteration #136     ecut=    25.00 Ry     beta= 0.70
     Davidson diagonalization with overlap
     ethr =  3.21E-04,  avg # of iterations =  6.0

     total cpu time spent up to now is      922.8 secs

     total energy              =   -1485.23575680 Ry
     estimated scf accuracy    <      46.83243995 Ry

     iteration #137     ecut=    25.00 Ry     beta= 0.70
     Davidson diagonalization with overlap
     ethr =  3.21E-04,  avg # of iterations =  7.0

     total cpu time spent up to now is      929.6 secs

     total energy              =   -1486.51948443 Ry
     estimated scf accuracy    <      22.04564467 Ry

     iteration #138     ecut=    25.00 Ry     beta= 0.70
     Davidson diagonalization with overlap
     ethr =  3.21E-04,  avg # of iterations =  6.0

     total cpu time spent up to now is      936.6 secs

     total energy              =   -1486.19071829 Ry
     estimated scf accuracy    <      33.29310687 Ry

     iteration #139     ecut=    25.00 Ry     beta= 0.70
     Davidson diagonalization with overlap
     ethr =  3.21E-04,  avg # of iterations =  8.0

     total cpu time spent up to now is      943.5 secs

     total energy              =   -1486.05535777 Ry
     estimated scf accuracy    <      23.58356112 Ry

     iteration #140     ecut=    25.00 Ry     beta= 0.70
     Davidson diagonalization with overlap
     ethr =  3.21E-04,  avg # of iterations =  6.0

     total cpu time spent up to now is      950.6 secs

     total energy              =   -1485.88843037 Ry
     estimated scf accuracy    <      46.97088908 Ry

     iteration #141     ecut=    25.00 Ry     beta= 0.70
     Davidson diagonalization with overlap
     ethr =  3.21E-04,  avg # of iterations =  6.0

     total cpu time spent up to now is      957.1 secs

     total energy              =   -1485.84665397 Ry
     estimated scf accuracy    <      37.85198941 Ry

     iteration #142     ecut=    25.00 Ry     beta= 0.70
     Davidson diagonalization with overlap
     ethr =  3.21E-04,  avg # of iterations =  5.0

     total cpu time spent up to now is      963.3 secs

     total energy              =   -1486.02807692 Ry
     estimated scf accuracy    <      35.43535003 Ry

     iteration #143     ecut=    25.00 Ry     beta= 0.70
     Davidson diagonalization with overlap
     ethr =  3.21E-04,  avg # of iterations =  3.0

     total cpu time spent up to now is      970.1 secs

     total energy              =   -1486.95973492 Ry
     estimated scf accuracy    <      24.49458781 Ry

     iteration #144     ecut=    25.00 Ry     beta= 0.70
     Davidson diagonalization with overlap
     ethr =  3.21E-04,  avg # of iterations =  5.0

     total cpu time spent up to now is      977.7 secs

     total energy              =   -1486.23921278 Ry
     estimated scf accuracy    <      37.06860952 Ry

     iteration #145     ecut=    25.00 Ry     beta= 0.70
     Davidson diagonalization with overlap
     ethr =  3.21E-04,  avg # of iterations =  5.0

     total cpu time spent up to now is      984.5 secs

     total energy              =   -1485.85236044 Ry
     estimated scf accuracy    <      54.01380429 Ry

     iteration #146     ecut=    25.00 Ry     beta= 0.70
     Davidson diagonalization with overlap
     ethr =  3.21E-04,  avg # of iterations =  6.0

     total cpu time spent up to now is      991.5 secs

     total energy              =   -1485.24530992 Ry
     estimated scf accuracy    <      46.46882506 Ry

     iteration #147     ecut=    25.00 Ry     beta= 0.70
     Davidson diagonalization with overlap
     ethr =  3.21E-04,  avg # of iterations =  8.0

     total cpu time spent up to now is      999.1 secs

     total energy              =   -1486.47399153 Ry
     estimated scf accuracy    <      22.57459670 Ry

     iteration #148     ecut=    25.00 Ry     beta= 0.70
     Davidson diagonalization with overlap
     ethr =  3.21E-04,  avg # of iterations =  6.0

     total cpu time spent up to now is     1006.0 secs

     total energy              =   -1486.21337703 Ry
     estimated scf accuracy    <      33.27484416 Ry

     iteration #149     ecut=    25.00 Ry     beta= 0.70
     Davidson diagonalization with overlap
     ethr =  3.21E-04,  avg # of iterations =  8.0

     total cpu time spent up to now is     1012.5 secs

     total energy              =   -1486.04984017 Ry
     estimated scf accuracy    <      23.72386481 Ry

     iteration #150     ecut=    25.00 Ry     beta= 0.70
     Davidson diagonalization with overlap
     ethr =  3.21E-04,  avg # of iterations =  6.0

     total cpu time spent up to now is     1019.0 secs

     total energy              =   -1485.91466109 Ry
     estimated scf accuracy    <      46.92446104 Ry

     iteration #151     ecut=    25.00 Ry     beta= 0.70
     Davidson diagonalization with overlap
     ethr =  3.21E-04,  avg # of iterations =  6.0

     total cpu time spent up to now is     1025.3 secs

     total energy              =   -1485.83806305 Ry
     estimated scf accuracy    <      38.23996247 Ry

     iteration #152     ecut=    25.00 Ry     beta= 0.70
     Davidson diagonalization with overlap
     ethr =  3.21E-04,  avg # of iterations =  5.0

     total cpu time spent up to now is     1031.7 secs

     total energy              =   -1485.97633920 Ry
     estimated scf accuracy    <      35.79437176 Ry

     iteration #153     ecut=    25.00 Ry     beta= 0.70
     Davidson diagonalization with overlap
     ethr =  3.21E-04,  avg # of iterations =  3.0

     total cpu time spent up to now is     1037.6 secs

     total energy              =   -1486.97527298 Ry
     estimated scf accuracy    <      24.58649259 Ry

     iteration #154     ecut=    25.00 Ry     beta= 0.70
     Davidson diagonalization with overlap
     ethr =  3.21E-04,  avg # of iterations =  3.0

     total cpu time spent up to now is     1043.5 secs

     total energy              =   -1486.25050047 Ry
     estimated scf accuracy    <      36.68475350 Ry

     iteration #155     ecut=    25.00 Ry     beta= 0.70
     Davidson diagonalization with overlap
     ethr =  3.21E-04,  avg # of iterations =  5.0

     total cpu time spent up to now is     1049.6 secs

     total energy              =   -1485.80048037 Ry
     estimated scf accuracy    <      53.73838134 Ry

     iteration #156     ecut=    25.00 Ry     beta= 0.70
     Davidson diagonalization with overlap
     ethr =  3.21E-04,  avg # of iterations =  6.0

     total cpu time spent up to now is     1056.0 secs

     total energy              =   -1485.26271399 Ry
     estimated scf accuracy    <      46.16533167 Ry

     iteration #157     ecut=    25.00 Ry     beta= 0.70
     Davidson diagonalization with overlap
     ethr =  3.21E-04,  avg # of iterations =  8.0

     total cpu time spent up to now is     1062.7 secs

     total energy              =   -1486.46413346 Ry
     estimated scf accuracy    <      23.31197666 Ry

     iteration #158     ecut=    25.00 Ry     beta= 0.70
     Davidson diagonalization with overlap
     ethr =  3.21E-04,  avg # of iterations =  6.0

     total cpu time spent up to now is     1069.0 secs

     total energy              =   -1486.21317908 Ry
     estimated scf accuracy    <      33.10953374 Ry

     iteration #159     ecut=    25.00 Ry     beta= 0.70
     Davidson diagonalization with overlap
     ethr =  3.21E-04,  avg # of iterations =  9.0

     total cpu time spent up to now is     1075.1 secs

     total energy              =   -1485.99692183 Ry
     estimated scf accuracy    <      24.94215009 Ry

     iteration #160     ecut=    25.00 Ry     beta= 0.70
     Davidson diagonalization with overlap
     ethr =  3.21E-04,  avg # of iterations =  6.0

     total cpu time spent up to now is     1081.4 secs

     total energy              =   -1485.91463560 Ry
     estimated scf accuracy    <      46.89861468 Ry

     iteration #161     ecut=    25.00 Ry     beta= 0.70
     Davidson diagonalization with overlap
     ethr =  3.21E-04,  avg # of iterations =  6.0

     total cpu time spent up to now is     1087.9 secs

     total energy              =   -1485.86742112 Ry
     estimated scf accuracy    <      38.78522181 Ry

     iteration #162     ecut=    25.00 Ry     beta= 0.70
     Davidson diagonalization with overlap
     ethr =  3.21E-04,  avg # of iterations =  5.0

     total cpu time spent up to now is     1095.2 secs

     total energy              =   -1485.96643804 Ry
     estimated scf accuracy    <      35.57378743 Ry

     iteration #163     ecut=    25.00 Ry     beta= 0.70
     Davidson diagonalization with overlap
     ethr =  3.21E-04,  avg # of iterations =  3.0

     total cpu time spent up to now is     1101.9 secs

     total energy              =   -1486.98236745 Ry
     estimated scf accuracy    <      24.69663057 Ry

     iteration #164     ecut=    25.00 Ry     beta= 0.70
     Davidson diagonalization with overlap
     ethr =  3.21E-04,  avg # of iterations =  3.0

     total cpu time spent up to now is     1108.6 secs

     total energy              =   -1486.21044757 Ry
     estimated scf accuracy    <      36.62496066 Ry

     iteration #165     ecut=    25.00 Ry     beta= 0.70
     Davidson diagonalization with overlap
     ethr =  3.21E-04,  avg # of iterations =  5.0

     total cpu time spent up to now is     1116.2 secs

     total energy              =   -1485.74253563 Ry
     estimated scf accuracy    <      53.81564777 Ry

     iteration #166     ecut=    25.00 Ry     beta= 0.70
     Davidson diagonalization with overlap
     ethr =  3.21E-04,  avg # of iterations =  6.0

     total cpu time spent up to now is     1122.9 secs

     total energy              =   -1485.30984569 Ry
     estimated scf accuracy    <      46.07938832 Ry

     iteration #167     ecut=    25.00 Ry     beta= 0.70
     Davidson diagonalization with overlap
     ethr =  3.21E-04,  avg # of iterations =  7.0

     total cpu time spent up to now is     1129.7 secs

     total energy              =   -1486.46561244 Ry
     estimated scf accuracy    <      23.25756462 Ry

     iteration #168     ecut=    25.00 Ry     beta= 0.70
     Davidson diagonalization with overlap
     ethr =  3.21E-04,  avg # of iterations =  6.0

     total cpu time spent up to now is     1135.9 secs

     total energy              =   -1486.19278638 Ry
     estimated scf accuracy    <      33.11492720 Ry

     iteration #169     ecut=    25.00 Ry     beta= 0.70
     Davidson diagonalization with overlap
     ethr =  3.21E-04,  avg # of iterations =  9.0

     total cpu time spent up to now is     1141.9 secs

     total energy              =   -1485.97112000 Ry
     estimated scf accuracy    <      25.88755966 Ry

     iteration #170     ecut=    25.00 Ry     beta= 0.70
     Davidson diagonalization with overlap
     ethr =  3.21E-04,  avg # of iterations =  6.0

     total cpu time spent up to now is     1148.3 secs

     total energy              =   -1485.91824491 Ry
     estimated scf accuracy    <      46.93767110 Ry

     iteration #171     ecut=    25.00 Ry     beta= 0.70
     Davidson diagonalization with overlap
     ethr =  3.21E-04,  avg # of iterations =  6.0

     total cpu time spent up to now is     1154.6 secs

     total energy              =   -1485.92164562 Ry
     estimated scf accuracy    <      38.95805833 Ry

     iteration #172     ecut=    25.00 Ry     beta= 0.70
     Davidson diagonalization with overlap
     ethr =  3.21E-04,  avg # of iterations =  5.0

     total cpu time spent up to now is     1160.9 secs

     total energy              =   -1485.94803666 Ry
     estimated scf accuracy    <      35.02494247 Ry

     iteration #173     ecut=    25.00 Ry     beta= 0.70
     Davidson diagonalization with overlap
     ethr =  3.21E-04,  avg # of iterations =  3.0

     total cpu time spent up to now is     1166.8 secs

     total energy              =   -1486.97784282 Ry
     estimated scf accuracy    <      24.79508035 Ry

     iteration #174     ecut=    25.00 Ry     beta= 0.70
     Davidson diagonalization with overlap
     ethr =  3.21E-04,  avg # of iterations =  4.0

     total cpu time spent up to now is     1172.7 secs

     total energy              =   -1486.19079299 Ry
     estimated scf accuracy    <      36.92745974 Ry

     iteration #175     ecut=    25.00 Ry     beta= 0.70
     Davidson diagonalization with overlap
     ethr =  3.21E-04,  avg # of iterations =  5.0

     total cpu time spent up to now is     1179.4 secs

     total energy              =   -1485.71160517 Ry
     estimated scf accuracy    <      53.84864951 Ry

     iteration #176     ecut=    25.00 Ry     beta= 0.70
     Davidson diagonalization with overlap
     ethr =  3.21E-04,  avg # of iterations =  6.0

     total cpu time spent up to now is     1186.4 secs

     total energy              =   -1485.35727516 Ry
     estimated scf accuracy    <      45.91579631 Ry

     iteration #177     ecut=    25.00 Ry     beta= 0.70
     Davidson diagonalization with overlap
     ethr =  3.21E-04,  avg # of iterations =  7.0

     total cpu time spent up to now is     1193.3 secs

     total energy              =   -1486.45576160 Ry
     estimated scf accuracy    <      22.86223675 Ry

     iteration #178     ecut=    25.00 Ry     beta= 0.70
     Davidson diagonalization with overlap
     ethr =  3.21E-04,  avg # of iterations =  6.0

     total cpu time spent up to now is     1200.6 secs

     total energy              =   -1486.18366694 Ry
     estimated scf accuracy    <      33.26189985 Ry

     iteration #179     ecut=    25.00 Ry     beta= 0.70
     Davidson diagonalization with overlap
     ethr =  3.21E-04,  avg # of iterations =  8.0

     total cpu time spent up to now is     1207.5 secs

     total energy              =   -1485.98299125 Ry
     estimated scf accuracy    <      25.86093896 Ry

     iteration #180     ecut=    25.00 Ry     beta= 0.70
     Davidson diagonalization with overlap
     ethr =  3.21E-04,  avg # of iterations =  7.0

     total cpu time spent up to now is     1215.1 secs

     total energy              =   -1485.93747103 Ry
     estimated scf accuracy    <      46.90627868 Ry

     iteration #181     ecut=    25.00 Ry     beta= 0.70
     Davidson diagonalization with overlap
     ethr =  3.21E-04,  avg # of iterations =  6.0

     total cpu time spent up to now is     1222.4 secs

     total energy              =   -1485.95270143 Ry
     estimated scf accuracy    <      38.62331386 Ry

     iteration #182     ecut=    25.00 Ry     beta= 0.70
     Davidson diagonalization with overlap
     ethr =  3.21E-04,  avg # of iterations =  5.0

     total cpu time spent up to now is     1229.6 secs

     total energy              =   -1485.90333181 Ry
     estimated scf accuracy    <      35.17298833 Ry

     iteration #183     ecut=    25.00 Ry     beta= 0.70
     Davidson diagonalization with overlap
     ethr =  3.21E-04,  avg # of iterations =  3.0

     total cpu time spent up to now is     1236.3 secs

     total energy              =   -1486.98490361 Ry
     estimated scf accuracy    <      24.87142958 Ry

     iteration #184     ecut=    25.00 Ry     beta= 0.70
     Davidson diagonalization with overlap
     ethr =  3.21E-04,  avg # of iterations =  3.0

     total cpu time spent up to now is     1243.6 secs

     total energy              =   -1486.21769851 Ry
     estimated scf accuracy    <      36.91938146 Ry

     iteration #185     ecut=    25.00 Ry     beta= 0.70
     Davidson diagonalization with overlap
     ethr =  3.21E-04,  avg # of iterations =  6.0

     total cpu time spent up to now is     1250.8 secs

     total energy              =   -1485.68758046 Ry
     estimated scf accuracy    <      53.54965953 Ry

     iteration #186     ecut=    25.00 Ry     beta= 0.70
     Davidson diagonalization with overlap
     ethr =  3.21E-04,  avg # of iterations =  6.0

     total cpu time spent up to now is     1257.4 secs

     total energy              =   -1485.36681609 Ry
     estimated scf accuracy    <      45.60356409 Ry

     iteration #187     ecut=    25.00 Ry     beta= 0.70
     Davidson diagonalization with overlap
     ethr =  3.21E-04,  avg # of iterations =  7.0

     total cpu time spent up to now is     1263.9 secs

     total energy              =   -1486.43976357 Ry
     estimated scf accuracy    <      23.20786816 Ry

     iteration #188     ecut=    25.00 Ry     beta= 0.70
     Davidson diagonalization with overlap
     ethr =  3.21E-04,  avg # of iterations =  6.0

     total cpu time spent up to now is     1270.1 secs

     total energy              =   -1486.18977037 Ry
     estimated scf accuracy    <      33.25648978 Ry

     iteration #189     ecut=    25.00 Ry     beta= 0.70
     Davidson diagonalization with overlap
     ethr =  3.21E-04,  avg # of iterations =  8.0

     total cpu time spent up to now is     1276.3 secs

     total energy              =   -1485.98295420 Ry
     estimated scf accuracy    <      25.95869795 Ry

     iteration #190     ecut=    25.00 Ry     beta= 0.70
     Davidson diagonalization with overlap
     ethr =  3.21E-04,  avg # of iterations =  7.0

     total cpu time spent up to now is     1282.8 secs

     total energy              =   -1485.94875315 Ry
     estimated scf accuracy    <      46.86974205 Ry

     iteration #191     ecut=    25.00 Ry     beta= 0.70
     Davidson diagonalization with overlap
     ethr =  3.21E-04,  avg # of iterations =  6.0

     total cpu time spent up to now is     1289.1 secs

     total energy              =   -1485.95388445 Ry
     estimated scf accuracy    <      38.35227655 Ry

     iteration #192     ecut=    25.00 Ry     beta= 0.70
     Davidson diagonalization with overlap
     ethr =  3.21E-04,  avg # of iterations =  5.0

     total cpu time spent up to now is     1295.4 secs

     total energy              =   -1485.88262179 Ry
     estimated scf accuracy    <      35.59753878 Ry

     iteration #193     ecut=    25.00 Ry     beta= 0.70
     Davidson diagonalization with overlap
     ethr =  3.21E-04,  avg # of iterations =  3.0

     total cpu time spent up to now is     1301.9 secs

     total energy              =   -1487.00665723 Ry
     estimated scf accuracy    <      25.01961175 Ry

     iteration #194     ecut=    25.00 Ry     beta= 0.70
     Davidson diagonalization with overlap
     ethr =  3.21E-04,  avg # of iterations =  4.0

     total cpu time spent up to now is     1308.0 secs

     total energy              =   -1486.23326440 Ry
     estimated scf accuracy    <      36.72357613 Ry

     iteration #195     ecut=    25.00 Ry     beta= 0.70
     Davidson diagonalization with overlap
     ethr =  3.21E-04,  avg # of iterations =  5.0

     total cpu time spent up to now is     1314.1 secs

     total energy              =   -1485.63768254 Ry
     estimated scf accuracy    <      53.13666301 Ry

     iteration #196     ecut=    25.00 Ry     beta= 0.70
     Davidson diagonalization with overlap
     ethr =  3.21E-04,  avg # of iterations =  6.0

     total cpu time spent up to now is     1320.5 secs

     total energy              =   -1485.35091567 Ry
     estimated scf accuracy    <      45.49113059 Ry

     iteration #197     ecut=    25.00 Ry     beta= 0.70
     Davidson diagonalization with overlap
     ethr =  3.21E-04,  avg # of iterations =  6.0

     total cpu time spent up to now is     1326.9 secs

     total energy              =   -1486.43566162 Ry
     estimated scf accuracy    <      23.70714918 Ry

     iteration #198     ecut=    25.00 Ry     beta= 0.70
     Davidson diagonalization with overlap
     ethr =  3.21E-04,  avg # of iterations =  6.0

     total cpu time spent up to now is     1333.2 secs

     total energy              =   -1486.19494518 Ry
     estimated scf accuracy    <      33.22058714 Ry

     iteration #199     ecut=    25.00 Ry     beta= 0.70
     Davidson diagonalization with overlap
     ethr =  3.21E-04,  avg # of iterations =  8.0

     total cpu time spent up to now is     1339.8 secs

     total energy              =   -1485.96685297 Ry
     estimated scf accuracy    <      26.40756287 Ry

     iteration #200     ecut=    25.00 Ry     beta= 0.70
     Davidson diagonalization with overlap
     ethr =  3.21E-04,  avg # of iterations =  6.0

     total cpu time spent up to now is     1346.2 secs

     total energy              =   -1485.94570789 Ry
     estimated scf accuracy    <      46.83290205 Ry

     End of self-consistent calculation

     convergence NOT achieved after 200 iterations: stopping

     Writing output data file ./outdir/KDP.save/
     Message from routine punch:
     wavefunctions written to file

     init_run     :     11.81s CPU     11.91s WALL (       1 calls)
     electrons    :   1327.90s CPU   1334.22s WALL (       1 calls)

     Called by init_run:
     wfcinit      :      1.89s CPU      1.95s WALL (       1 calls)
     potinit      :      3.98s CPU      3.99s WALL (       1 calls)
     hinit0       :      5.87s CPU      5.88s WALL (       1 calls)

     Called by electrons:
     c_bands      :   1153.73s CPU   1156.24s WALL (     200 calls)
     sum_band     :     76.92s CPU     77.15s WALL (     200 calls)
     v_of_rho     :     78.33s CPU     81.88s WALL (     201 calls)
     mix_rho      :     12.70s CPU     12.71s WALL (     200 calls)

     Called by c_bands:
     init_us_2    :      7.31s CPU      7.41s WALL (     401 calls)
     regterg      :   1103.56s CPU   1106.04s WALL (     200 calls)

     Called by *egterg:
     rdiaghg      :     51.78s CPU     51.79s WALL (    1316 calls)
     h_psi        :    719.20s CPU    720.15s WALL (    1317 calls)
     g_psi        :      3.11s CPU      3.12s WALL (    1116 calls)

     Called by h_psi:
     h_psi:calbec :    198.78s CPU    198.88s WALL (    1317 calls)
     vloc_psi     :    319.38s CPU    320.17s WALL (    1317 calls)
     add_vuspsi   :    199.32s CPU    199.38s WALL (    1317 calls)

     General routines
     calbec       :    198.77s CPU    198.87s WALL (    1317 calls)
     fft          :     37.81s CPU     37.92s WALL (    2010 calls)
     ffts         :      1.32s CPU      1.33s WALL (     401 calls)
     fftw         :    310.17s CPU    310.99s WALL (  105310 calls)
     interpolate  :      5.04s CPU      5.06s WALL (     201 calls)
     davcio       :      0.01s CPU      0.01s WALL (      19 calls)

     Parallel routines

     PWSCF        :  22m19.80s CPU  22m26.25s WALL


   This run was terminated on:  22:39:19   4Sep2023            

=------------------------------------------------------------------------------=
   JOB DONE.
=------------------------------------------------------------------------------=
