
     Program PWSCF v.6.7MaX starts on  5Sep2023 at 20:52: 9 

     This program is part of the open-source Quantum ESPRESSO suite
     for quantum simulation of materials; please cite
         "P. Giannozzi et al., J. Phys.:Condens. Matter 21 395502 (2009);
         "P. Giannozzi et al., J. Phys.:Condens. Matter 29 465901 (2017);
          URL http://www.quantum-espresso.org", 
     in publications or presentations arising from this work. More details at
     http://www.quantum-espresso.org/quote

     Parallel version (MPI), running on     1 processors

     MPI processes distributed on     1 nodes
     Waiting for input...
     Reading input from standard input
Warning: card  2  2  2  0 0 0 ignored

     Current dimensions of program PWSCF are:
     Max number of different atomic species (ntypx) = 10
     Max number of k-points (npk) =  40000
     Max angular momentum in pseudopotentials (lmaxx) =  3
     Message from routine iosys:
     wrong startingpot: use default (2)

     Atomic positions and unit cell read from directory:
     ./outdir/KDP.save/
     Atomic positions from file used, from input discarded

     Message from routine read_pp_mesh:
     mesh size missing, using the one in header
     Message from routine read_pp_mesh:
     mesh size missing, using the one in header
     Message from routine read_pp_mesh:
     mesh size missing, using the one in header
     Message from routine read_pp_mesh:
     mesh size missing, using the one in header

     gamma-point specific algorithms are used

     Subspace diagonalization in iterative solution of the eigenvalue problem:
     a serial algorithm will be used


     G-vector sticks info
     --------------------
     sticks:   dense  smooth     PW     G-vecs:    dense   smooth      PW
     Sum        7033    3133    781               489365   145045   18167



     bravais-lattice index     =            8
     lattice parameter (alat)  =      19.8988  a.u.
     unit-cell volume          =    8586.0604 (a.u.)^3
     number of atoms/cell      =           44
     number of atomic types    =            4
     number of electrons       =       236.00
     number of Kohn-Sham states=          142
     kinetic-energy cutoff     =      25.0000  Ry
     charge density cutoff     =     225.0000  Ry
     Exchange-correlation= PBE
                           (   1   4   3   4   0   0   0)

     celldm(1)=  19.898816  celldm(2)=   0.991453  celldm(3)=   1.099107
     celldm(4)=   0.000000  celldm(5)=   0.000000  celldm(6)=   0.000000

     crystal axes: (cart. coord. in units of alat)
               a(1) = (   1.000000   0.000000   0.000000 )  
               a(2) = (   0.000000   0.991453   0.000000 )  
               a(3) = (   0.000000   0.000000   1.099107 )  

     reciprocal axes: (cart. coord. in units 2 pi/alat)
               b(1) = (  1.000000  0.000000  0.000000 )  
               b(2) = (  0.000000  1.008621  0.000000 )  
               b(3) = (  0.000000  0.000000  0.909829 )  


     PseudoPot. # 1 for K  read from file:
     /home/johnpaul/JP_QME/Dojo_Pseudo/nc-sr-05_pbe_stringent_upf/K.upf
     MD5 check sum: 0aa97b2c023445f040759afc9fdb6c80
     Pseudo is Norm-conserving + core correction, Zval =  9.0
     Generated using ONCVPSP code by D. R. Hamann
     Using radial grid of 2222 points,  6 beta functions with: 
                l(1) =   0
                l(2) =   0
                l(3) =   1
                l(4) =   1
                l(5) =   2
                l(6) =   2

     PseudoPot. # 2 for P  read from file:
     /home/johnpaul/JP_QME/Dojo_Pseudo/nc-sr-05_pbe_stringent_upf/P.upf
     MD5 check sum: e25a93595ed76be8dfbf715c9c2e8dc8
     Pseudo is Norm-conserving + core correction, Zval =  5.0
     Generated using ONCVPSP code by D. R. Hamann
     Using radial grid of 1298 points,  6 beta functions with: 
                l(1) =   0
                l(2) =   0
                l(3) =   1
                l(4) =   1
                l(5) =   2
                l(6) =   2

     PseudoPot. # 3 for O  read from file:
     /home/johnpaul/JP_QME/Dojo_Pseudo/nc-sr-05_pbe_stringent_upf/O.upf
     MD5 check sum: 9db02a5ece9d56b81b65a73f8163743d
     Pseudo is Norm-conserving + core correction, Zval =  6.0
     Generated using ONCVPSP code by D. R. Hamann
     Using radial grid of  936 points,  5 beta functions with: 
                l(1) =   0
                l(2) =   0
                l(3) =   1
                l(4) =   1
                l(5) =   2

     PseudoPot. # 4 for H  read from file:
     /home/johnpaul/JP_QME/Dojo_Pseudo/nc-sr-05_pbe_stringent_upf/H.upf
     MD5 check sum: e96aa7e3e4a958db16958554ea960e2a
     Pseudo is Norm-conserving, Zval =  1.0
     Generated using ONCVPSP code by D. R. Hamann
     Using radial grid of 1166 points,  3 beta functions with: 
                l(1) =   0
                l(2) =   0
                l(3) =   1

     atomic species   valence    mass     pseudopotential
        K1+            9.00    39.09830     K ( 1.00)
        P5+            5.00    30.97376     P ( 1.00)
        O2-            6.00    15.99940     O ( 1.00)
        H1+            1.00     1.00794     H ( 1.00)

      2 Sym. Ops. (no inversion) found



   Cartesian axes

     site n.     atom                  positions (alat units)
         1           K1+ tau(   1) = (   0.7500000   0.2478632   0.7577641  )
         2           K1+ tau(   2) = (   0.2500000   0.7435897   0.7577641  )
         3           P5+ tau(   3) = (   0.2500000   0.2478632   0.7499009  )
         4           P5+ tau(   4) = (   0.7500000   0.7435897   0.7499009  )
         5           H1+ tau(   5) = (   0.1880000   0.4585470   0.6735618  )
         6           H1+ tau(   6) = (   0.8120000   0.5329060   0.6735618  )
         7           O2- tau(   7) = (   0.6160000   0.0342051   0.6719236  )
         8           O2- tau(   8) = (   0.8840000   0.4615214   0.6719236  )
         9           O2- tau(   9) = (   0.1160000   0.5299316   0.6719236  )
        10           O2- tau(  10) = (   0.3840000   0.9572479   0.6719236  )
        11           O2- tau(  11) = (   0.2155000   0.1328547   0.6689749  )
        12           O2- tau(  12) = (   0.2845000   0.3628718   0.6689749  )
        13           O2- tau(  13) = (   0.7155000   0.6285812   0.6689749  )
        14           O2- tau(  14) = (   0.7845000   0.8585983   0.6689749  )
        15           K1+ tau(  15) = (   0.0000000   0.0000000   0.5939464  )
        16           K1+ tau(  16) = (   0.5000000   0.4957265   0.5939464  )
        17           P5+ tau(  17) = (   0.5000000   0.0000000   0.5860832  )
        18           P5+ tau(  18) = (   0.0000000   0.4957265   0.5860832  )
        19           H1+ tau(  19) = (   0.5620000   0.2106838   0.5097442  )
        20           H1+ tau(  20) = (   0.9380000   0.2850427   0.5097442  )
        21           H1+ tau(  21) = (   0.0620000   0.7064103   0.5097442  )
        22           H1+ tau(  22) = (   0.4380000   0.7807692   0.5097442  )
        23           O2- tau(  23) = (   0.8660000   0.2136581   0.5081060  )
        24           O2- tau(  24) = (   0.6340000   0.2820684   0.5081060  )
        25           O2- tau(  25) = (   0.3660000   0.7093846   0.5081060  )
        26           O2- tau(  26) = (   0.1340000   0.7777949   0.5081060  )
        27           O2- tau(  27) = (   0.4655000   0.1150085   0.5051573  )
        28           O2- tau(  28) = (   0.0345000   0.3807179   0.5051573  )
        29           O2- tau(  29) = (   0.9655000   0.6107350   0.5051573  )
        30           O2- tau(  30) = (   0.5345000   0.8764444   0.5051573  )
        31           K1+ tau(  31) = (   0.2500000   0.2478632   0.4301288  )
        32           K1+ tau(  32) = (   0.7500000   0.7435897   0.4301288  )
        33           P5+ tau(  33) = (   0.7500000   0.2478632   0.4222655  )
        34           P5+ tau(  34) = (   0.2500000   0.7435897   0.4222655  )
        35           H1+ tau(  35) = (   0.6880000   0.4585470   0.3459265  )
        36           H1+ tau(  36) = (   0.3120000   0.5329060   0.3459265  )
        37           O2- tau(  37) = (   0.1160000   0.0342051   0.3442883  )
        38           O2- tau(  38) = (   0.3840000   0.4615214   0.3442883  )
        39           O2- tau(  39) = (   0.6160000   0.5299316   0.3442883  )
        40           O2- tau(  40) = (   0.8840000   0.9572479   0.3442883  )
        41           O2- tau(  41) = (   0.7155000   0.1328547   0.3413396  )
        42           O2- tau(  42) = (   0.7845000   0.3628718   0.3413396  )
        43           O2- tau(  43) = (   0.2155000   0.6285812   0.3413396  )
        44           O2- tau(  44) = (   0.2845000   0.8585983   0.3413396  )

     number of k points=     1  Gaussian smearing, width (Ry)=  0.0100
                       cart. coord. in units 2pi/alat
        k(    1) = (   0.0000000   0.0000000   0.0000000), wk =   2.0000000

     Dense  grid:   244683 G-vectors     FFT dimensions: (  96,  96, 108)

     Smooth grid:    72523 G-vectors     FFT dimensions: (  64,  64,  72)

     Estimated max dynamical RAM per process >     304.10 MB

     Check: negative core charge=   -0.000044

     The potential is recalculated from file :
     ./outdir/KDP.save/charge-density

     Starting wfcs are  158 randomized atomic wfcs

     Band Structure Calculation
     Davidson diagonalization with overlap

     ethr =  4.24E-06,  avg # of iterations = 60.0

     total cpu time spent up to now is       24.3 secs

     End of band structure calculation

          k = 0.0000 0.0000 0.0000 (  9084 PWs)   bands (ev):

   -30.6370 -30.5052 -29.5783 -29.1183 -28.5624 -28.4594 -25.2876 -25.1804
   -24.8513 -24.2869 -24.2336 -23.9432 -23.8977 -23.6903 -23.6013 -23.1654
   -22.7062 -22.5789 -22.5542 -22.4543 -22.4007 -22.2852 -22.1328 -21.9673
   -21.7892 -21.6954 -21.4475 -20.8988 -20.7417 -19.5326 -15.3555 -15.2470
   -15.2282 -15.1923 -15.1129 -15.0568 -14.2875 -14.2219 -14.1995 -13.8352
   -13.7550 -13.7314 -13.2535 -13.2178 -13.1892 -13.1454 -13.1219 -13.0822
   -11.7770 -11.5100 -11.2086 -10.4580 -10.1332  -9.8948  -9.5547  -9.3272
    -9.2062  -8.4514  -8.2455  -7.7968  -7.6096  -7.3526  -7.2993  -6.8648
    -6.8255  -6.7446  -6.6473  -6.5597  -6.4304  -6.3226  -6.1728  -6.1433
    -6.0231  -5.9846  -5.8859  -5.7750  -5.5494  -5.4954  -5.1737  -5.1042
    -4.9488  -4.7148  -4.5787  -4.4606  -4.3405  -4.1435  -4.0704  -3.9929
    -3.9293  -3.8304  -3.7678  -3.6599  -3.5605  -3.5291  -3.4537  -3.3952
    -3.3536  -3.2802  -3.1818  -3.1306  -3.0560  -2.7357  -2.6904  -2.5869
    -2.5308  -2.4463  -2.3728  -2.3224  -2.3039  -2.2248  -2.1767  -2.1323
    -2.0790  -2.0145  -1.9396  -1.8477  -1.7925  -1.7272  -1.6251  -1.2240
    -1.1405  -0.9396   1.2868   1.3572   1.7254   2.5949   2.7010   3.2679
     3.6479   3.7471   4.0256   4.1194   4.2480   4.3325   4.3656   4.6432
     4.6980   4.8550   5.1163   5.1581   5.2440   5.3107

     the Fermi energy is    -1.6605 ev
     (compare with:    -1.7749 eV, computed in scf)

     Writing output data file ./outdir/KDP.save/

     init_run     :      5.18s CPU      5.25s WALL (       1 calls)
     electrons    :     18.88s CPU     18.97s WALL (       1 calls)

     Called by init_run:
     wfcinit      :      0.00s CPU      0.00s WALL (       1 calls)
     potinit      :      0.35s CPU      0.37s WALL (       1 calls)
     hinit0       :      4.78s CPU      4.83s WALL (       1 calls)

     Called by electrons:
     c_bands      :     18.88s CPU     18.96s WALL (       1 calls)
     v_of_rho     :      0.30s CPU      0.32s WALL (       1 calls)

     Called by c_bands:
     init_us_2    :      0.01s CPU      0.02s WALL (       1 calls)
     regterg      :     17.67s CPU     17.72s WALL (       3 calls)

     Called by *egterg:
     rdiaghg      :      1.02s CPU      1.03s WALL (      61 calls)
     h_psi        :     11.30s CPU     11.34s WALL (      64 calls)
     g_psi        :      0.06s CPU      0.06s WALL (      60 calls)

     Called by h_psi:
     h_psi:calbec :      3.24s CPU      3.24s WALL (      64 calls)
     vloc_psi     :      4.78s CPU      4.82s WALL (      64 calls)
     add_vuspsi   :      3.24s CPU      3.24s WALL (      64 calls)

     General routines
     calbec       :      3.24s CPU      3.24s WALL (      64 calls)
     fft          :      0.13s CPU      0.14s WALL (      10 calls)
     ffts         :      0.01s CPU      0.01s WALL (       1 calls)
     fftw         :      3.84s CPU      3.87s WALL (    2092 calls)
     interpolate  :      0.03s CPU      0.03s WALL (       1 calls)
     davcio       :      0.01s CPU      0.01s WALL (       2 calls)

     Parallel routines

     PWSCF        :     24.15s CPU     24.33s WALL


   This run was terminated on:  20:52:33   5Sep2023            

=------------------------------------------------------------------------------=
   JOB DONE.
=------------------------------------------------------------------------------=
