
     Program PWSCF v.6.7MaX starts on  6Sep2023 at 16:58: 0 

     This program is part of the open-source Quantum ESPRESSO suite
     for quantum simulation of materials; please cite
         "P. Giannozzi et al., J. Phys.:Condens. Matter 21 395502 (2009);
         "P. Giannozzi et al., J. Phys.:Condens. Matter 29 465901 (2017);
          URL http://www.quantum-espresso.org", 
     in publications or presentations arising from this work. More details at
     http://www.quantum-espresso.org/quote

     Parallel version (MPI), running on     1 processors

     MPI processes distributed on     1 nodes
     Waiting for input...
     Reading input from standard input
Warning: card &CELL ignored
Warning: card / ignored

     Current dimensions of program PWSCF are:
     Max number of different atomic species (ntypx) = 10
     Max number of k-points (npk) =  40000
     Max angular momentum in pseudopotentials (lmaxx) =  3
     Message from routine read_pp_mesh:
     mesh size missing, using the one in header
     Message from routine read_pp_mesh:
     mesh size missing, using the one in header
     Message from routine read_pp_mesh:
     mesh size missing, using the one in header
     Message from routine read_pp_mesh:
     mesh size missing, using the one in header

     Subspace diagonalization in iterative solution of the eigenvalue problem:
     a serial algorithm will be used


     G-vector sticks info
     --------------------
     sticks:   dense  smooth     PW     G-vecs:    dense   smooth      PW
     Sum        7033    3133    881               291743    86489   13039



     bravais-lattice index     =            8
     lattice parameter (alat)  =      19.8988  a.u.
     unit-cell volume          =    5118.8754 (a.u.)^3
     number of atoms/cell      =           44
     number of atomic types    =            4
     number of electrons       =       236.00
     number of Kohn-Sham states=          142
     kinetic-energy cutoff     =      25.0000  Ry
     charge density cutoff     =     225.0000  Ry
     scf convergence threshold =      1.0E-02
     mixing beta               =       0.7000
     number of iterations used =            8  plain     mixing
     energy convergence thresh.=      1.0E-05
     force convergence thresh. =      1.0E-04
     Exchange-correlation= PBE
                           (   1   4   3   4   0   0   0)
     nstep                     =           50


     celldm(1)=  19.898816  celldm(2)=   0.991453  celldm(3)=   0.655271
     celldm(4)=   0.000000  celldm(5)=   0.000000  celldm(6)=   0.000000

     crystal axes: (cart. coord. in units of alat)
               a(1) = (   1.000000   0.000000   0.000000 )  
               a(2) = (   0.000000   0.991453   0.000000 )  
               a(3) = (   0.000000   0.000000   0.655271 )  

     reciprocal axes: (cart. coord. in units 2 pi/alat)
               b(1) = (  1.000000  0.000000  0.000000 )  
               b(2) = (  0.000000  1.008621  0.000000 )  
               b(3) = (  0.000000  0.000000  1.526087 )  


     PseudoPot. # 1 for K  read from file:
     /home/johnpaul/JP_QME/Dojo_Pseudo/nc-sr-05_pbe_stringent_upf/K.upf
     MD5 check sum: 0aa97b2c023445f040759afc9fdb6c80
     Pseudo is Norm-conserving + core correction, Zval =  9.0
     Generated using ONCVPSP code by D. R. Hamann
     Using radial grid of 2222 points,  6 beta functions with: 
                l(1) =   0
                l(2) =   0
                l(3) =   1
                l(4) =   1
                l(5) =   2
                l(6) =   2

     PseudoPot. # 2 for P  read from file:
     /home/johnpaul/JP_QME/Dojo_Pseudo/nc-sr-05_pbe_stringent_upf/P.upf
     MD5 check sum: e25a93595ed76be8dfbf715c9c2e8dc8
     Pseudo is Norm-conserving + core correction, Zval =  5.0
     Generated using ONCVPSP code by D. R. Hamann
     Using radial grid of 1298 points,  6 beta functions with: 
                l(1) =   0
                l(2) =   0
                l(3) =   1
                l(4) =   1
                l(5) =   2
                l(6) =   2

     PseudoPot. # 3 for O  read from file:
     /home/johnpaul/JP_QME/Dojo_Pseudo/nc-sr-05_pbe_stringent_upf/O.upf
     MD5 check sum: 9db02a5ece9d56b81b65a73f8163743d
     Pseudo is Norm-conserving + core correction, Zval =  6.0
     Generated using ONCVPSP code by D. R. Hamann
     Using radial grid of  936 points,  5 beta functions with: 
                l(1) =   0
                l(2) =   0
                l(3) =   1
                l(4) =   1
                l(5) =   2

     PseudoPot. # 4 for H  read from file:
     /home/johnpaul/JP_QME/Dojo_Pseudo/nc-sr-05_pbe_stringent_upf/H.upf
     MD5 check sum: e96aa7e3e4a958db16958554ea960e2a
     Pseudo is Norm-conserving, Zval =  1.0
     Generated using ONCVPSP code by D. R. Hamann
     Using radial grid of 1166 points,  3 beta functions with: 
                l(1) =   0
                l(2) =   0
                l(3) =   1

     atomic species   valence    mass     pseudopotential
        K1+            9.00    39.09830     K ( 1.00)
        P5+            5.00    30.97376     P ( 1.00)
        O2-            6.00    15.99940     O ( 1.00)
        H1+            1.00     1.00794     H ( 1.00)

      2 Sym. Ops. (no inversion) found



   Cartesian axes

     site n.     atom                  positions (alat units)
         1           K1+ tau(   1) = (   0.7500000   0.2478632   0.7577641  )
         2           K1+ tau(   2) = (   0.2500000   0.7435897   0.7577641  )
         3           P5+ tau(   3) = (   0.2500000   0.2478632   0.7499009  )
         4           P5+ tau(   4) = (   0.7500000   0.7435897   0.7499009  )
         5           H1+ tau(   5) = (   0.1880000   0.4585470   0.6735618  )
         6           H1+ tau(   6) = (   0.8120000   0.5329060   0.6735618  )
         7           O2- tau(   7) = (   0.6160000   0.0342051   0.6719236  )
         8           O2- tau(   8) = (   0.8840000   0.4615214   0.6719236  )
         9           O2- tau(   9) = (   0.1160000   0.5299316   0.6719236  )
        10           O2- tau(  10) = (   0.3840000   0.9572479   0.6719236  )
        11           O2- tau(  11) = (   0.2155000   0.1328547   0.6689749  )
        12           O2- tau(  12) = (   0.2845000   0.3628718   0.6689749  )
        13           O2- tau(  13) = (   0.7155000   0.6285812   0.6689749  )
        14           O2- tau(  14) = (   0.7845000   0.8585983   0.6689749  )
        15           K1+ tau(  15) = (   0.0000000   0.0000000   0.5939464  )
        16           K1+ tau(  16) = (   0.5000000   0.4957265   0.5939464  )
        17           P5+ tau(  17) = (   0.5000000   0.0000000   0.5860832  )
        18           P5+ tau(  18) = (   0.0000000   0.4957265   0.5860832  )
        19           H1+ tau(  19) = (   0.5620000   0.2106838   0.5097442  )
        20           H1+ tau(  20) = (   0.9380000   0.2850427   0.5097442  )
        21           H1+ tau(  21) = (   0.0620000   0.7064103   0.5097442  )
        22           H1+ tau(  22) = (   0.4380000   0.7807692   0.5097442  )
        23           O2- tau(  23) = (   0.8660000   0.2136581   0.5081060  )
        24           O2- tau(  24) = (   0.6340000   0.2820684   0.5081060  )
        25           O2- tau(  25) = (   0.3660000   0.7093846   0.5081060  )
        26           O2- tau(  26) = (   0.1340000   0.7777949   0.5081060  )
        27           O2- tau(  27) = (   0.4655000   0.1150085   0.5051573  )
        28           O2- tau(  28) = (   0.0345000   0.3807179   0.5051573  )
        29           O2- tau(  29) = (   0.9655000   0.6107350   0.5051573  )
        30           O2- tau(  30) = (   0.5345000   0.8764444   0.5051573  )
        31           K1+ tau(  31) = (   0.2500000   0.2478632   0.4301288  )
        32           K1+ tau(  32) = (   0.7500000   0.7435897   0.4301288  )
        33           P5+ tau(  33) = (   0.7500000   0.2478632   0.4222655  )
        34           P5+ tau(  34) = (   0.2500000   0.7435897   0.4222655  )
        35           H1+ tau(  35) = (   0.6880000   0.4585470   0.3459265  )
        36           H1+ tau(  36) = (   0.3120000   0.5329060   0.3459265  )
        37           O2- tau(  37) = (   0.1160000   0.0342051   0.3442883  )
        38           O2- tau(  38) = (   0.3840000   0.4615214   0.3442883  )
        39           O2- tau(  39) = (   0.6160000   0.5299316   0.3442883  )
        40           O2- tau(  40) = (   0.8840000   0.9572479   0.3442883  )
        41           O2- tau(  41) = (   0.7155000   0.1328547   0.3413396  )
        42           O2- tau(  42) = (   0.7845000   0.3628718   0.3413396  )
        43           O2- tau(  43) = (   0.2155000   0.6285812   0.3413396  )
        44           O2- tau(  44) = (   0.2845000   0.8585983   0.3413396  )

     number of k points=     8  Gaussian smearing, width (Ry)=  0.0100
                       cart. coord. in units 2pi/alat
        k(    1) = (   0.0000000   0.0000000   0.0000000), wk =   0.2500000
        k(    2) = (   0.0000000   0.0000000  -0.7630435), wk =   0.2500000
        k(    3) = (   0.0000000  -0.5043103   0.0000000), wk =   0.2500000
        k(    4) = (   0.0000000  -0.5043103  -0.7630435), wk =   0.2500000
        k(    5) = (  -0.5000000   0.0000000   0.0000000), wk =   0.2500000
        k(    6) = (  -0.5000000   0.0000000  -0.7630435), wk =   0.2500000
        k(    7) = (  -0.5000000  -0.5043103   0.0000000), wk =   0.2500000
        k(    8) = (  -0.5000000  -0.5043103  -0.7630435), wk =   0.2500000

     Dense  grid:   291743 G-vectors     FFT dimensions: (  96,  96,  64)

     Smooth grid:    86489 G-vectors     FFT dimensions: (  64,  64,  45)

     Estimated max dynamical RAM per process >     594.69 MB

     Check: negative core charge=   -0.000062

     Initial potential from superposition of free atoms

     starting charge  235.88357, renormalised to  236.00000
     Starting wfcs are  158 randomized atomic wfcs

     total cpu time spent up to now is       21.5 secs

     Self-consistent Calculation

     iteration #  1     ecut=    25.00 Ry     beta= 0.70
     Davidson diagonalization with overlap
     ethr =  1.00E-02,  avg # of iterations =  5.0

     total cpu time spent up to now is       84.3 secs

     total energy              =   -1216.15963831 Ry
     estimated scf accuracy    <       9.77735077 Ry

     iteration #  2     ecut=    25.00 Ry     beta= 0.70
     Davidson diagonalization with overlap
     ethr =  4.14E-03,  avg # of iterations =  5.1

     negative rho (up, down):  1.832E-05 0.000E+00

     total cpu time spent up to now is      147.8 secs

     total energy              =   -1211.69415607 Ry
     estimated scf accuracy    <     113.79975573 Ry

     iteration #  3     ecut=    25.00 Ry     beta= 0.70
     Davidson diagonalization with overlap
     ethr =  4.14E-03,  avg # of iterations =  4.9

     negative rho (up, down):  3.767E-05 0.000E+00

     total cpu time spent up to now is      212.6 secs

     total energy              =   -1220.77059959 Ry
     estimated scf accuracy    <      15.68883210 Ry

     iteration #  4     ecut=    25.00 Ry     beta= 0.70
     Davidson diagonalization with overlap
     ethr =  4.14E-03,  avg # of iterations =  2.0

     negative rho (up, down):  4.146E-05 0.000E+00

     total cpu time spent up to now is      257.2 secs

     total energy              =   -1221.42976734 Ry
     estimated scf accuracy    <      10.08774497 Ry

     iteration #  5     ecut=    25.00 Ry     beta= 0.70
     Davidson diagonalization with overlap
     ethr =  4.14E-03,  avg # of iterations =  1.0

     negative rho (up, down):  2.781E-05 0.000E+00

     total cpu time spent up to now is      295.6 secs

     total energy              =   -1220.84263033 Ry
     estimated scf accuracy    <      17.93923500 Ry

     iteration #  6     ecut=    25.00 Ry     beta= 0.70
     Davidson diagonalization with overlap
     ethr =  4.14E-03,  avg # of iterations =  1.2

     negative rho (up, down):  3.272E-07 0.000E+00

     total cpu time spent up to now is      338.4 secs

     total energy              =   -1221.54339907 Ry
     estimated scf accuracy    <       7.14664309 Ry

     iteration #  7     ecut=    25.00 Ry     beta= 0.70
     Davidson diagonalization with overlap
     ethr =  3.03E-03,  avg # of iterations =  1.2

     total cpu time spent up to now is      378.0 secs

     total energy              =   -1221.73375311 Ry
     estimated scf accuracy    <       4.58788503 Ry

     iteration #  8     ecut=    25.00 Ry     beta= 0.70
     Davidson diagonalization with overlap
     ethr =  1.94E-03,  avg # of iterations =  1.0

     total cpu time spent up to now is      421.2 secs

     total energy              =   -1222.03624029 Ry
     estimated scf accuracy    <       1.21232691 Ry

     iteration #  9     ecut=    25.00 Ry     beta= 0.70
     Davidson diagonalization with overlap
     ethr =  5.14E-04,  avg # of iterations =  2.8

     total cpu time spent up to now is      468.8 secs

     total energy              =   -1221.88127649 Ry
     estimated scf accuracy    <       1.70327342 Ry

     iteration # 10     ecut=    25.00 Ry     beta= 0.70
     Davidson diagonalization with overlap
     ethr =  5.14E-04,  avg # of iterations =  1.0

     total cpu time spent up to now is      516.4 secs

     total energy              =   -1222.00471839 Ry
     estimated scf accuracy    <       1.78467662 Ry

     iteration # 11     ecut=    25.00 Ry     beta= 0.70
     Davidson diagonalization with overlap
     ethr =  5.14E-04,  avg # of iterations =  1.0

     total cpu time spent up to now is      563.7 secs

     total energy              =   -1221.95980002 Ry
     estimated scf accuracy    <       1.12564418 Ry

     iteration # 12     ecut=    25.00 Ry     beta= 0.70
     Davidson diagonalization with overlap
     ethr =  4.77E-04,  avg # of iterations =  1.0

     total cpu time spent up to now is      609.0 secs

     total energy              =   -1221.97858875 Ry
     estimated scf accuracy    <       0.12061276 Ry

     iteration # 13     ecut=    25.00 Ry     beta= 0.70
     Davidson diagonalization with overlap
     c_bands:  1 eigenvalues not converged
     ethr =  5.11E-05,  avg # of iterations = 11.5

     total cpu time spent up to now is      665.3 secs

     total energy              =   -1221.97956942 Ry
     estimated scf accuracy    <       0.23262004 Ry

     iteration # 14     ecut=    25.00 Ry     beta= 0.70
     Davidson diagonalization with overlap
     ethr =  5.11E-05,  avg # of iterations =  1.6

     total cpu time spent up to now is      707.5 secs

     total energy              =   -1221.97981200 Ry
     estimated scf accuracy    <       0.28506272 Ry

     iteration # 15     ecut=    25.00 Ry     beta= 0.70
     Davidson diagonalization with overlap
     ethr =  5.11E-05,  avg # of iterations =  1.0

     total cpu time spent up to now is      746.6 secs

     total energy              =   -1221.97599370 Ry
     estimated scf accuracy    <       0.32706540 Ry

     iteration # 16     ecut=    25.00 Ry     beta= 0.70
     Davidson diagonalization with overlap
     ethr =  5.11E-05,  avg # of iterations =  1.1

     total cpu time spent up to now is      786.4 secs

     total energy              =   -1221.97508117 Ry
     estimated scf accuracy    <       0.17029015 Ry

     iteration # 17     ecut=    25.00 Ry     beta= 0.70
     Davidson diagonalization with overlap
     ethr =  5.11E-05,  avg # of iterations =  1.0

     total cpu time spent up to now is      825.7 secs

     total energy              =   -1221.96362214 Ry
     estimated scf accuracy    <       0.10790469 Ry

     iteration # 18     ecut=    25.00 Ry     beta= 0.70
     Davidson diagonalization with overlap
     ethr =  4.57E-05,  avg # of iterations =  3.9

     total cpu time spent up to now is      872.5 secs

     total energy              =   -1221.96475507 Ry
     estimated scf accuracy    <       0.39242310 Ry

     iteration # 19     ecut=    25.00 Ry     beta= 0.70
     Davidson diagonalization with overlap
     ethr =  4.57E-05,  avg # of iterations =  1.0

     total cpu time spent up to now is      916.9 secs

     total energy              =   -1221.96365338 Ry
     estimated scf accuracy    <       0.09601745 Ry

     iteration # 20     ecut=    25.00 Ry     beta= 0.70
     Davidson diagonalization with overlap
     ethr =  4.07E-05,  avg # of iterations =  1.0

     total cpu time spent up to now is      957.3 secs

     total energy              =   -1221.96965140 Ry
     estimated scf accuracy    <       0.04804704 Ry

     iteration # 21     ecut=    25.00 Ry     beta= 0.70
     Davidson diagonalization with overlap
     ethr =  2.04E-05,  avg # of iterations =  1.0

     total cpu time spent up to now is      996.8 secs

     End of self-consistent calculation

          k = 0.0000 0.0000 0.0000 ( 10821 PWs)   bands (ev):

   -26.5825 -26.4323 -26.4099 -26.2240 -25.8446 -25.8189 -22.4262 -22.3829
   -22.2436 -21.5352 -21.4521 -21.2096 -21.1154 -21.0056 -20.7994 -20.1684
   -20.1404 -19.9415 -19.9047 -19.7547 -19.7243 -19.6255 -19.6246 -19.3493
   -19.3083 -19.1732 -18.6283 -18.4004 -18.0954 -17.7856 -11.3094 -11.2472
   -11.1986 -11.1597 -11.1525 -11.0363 -11.0263 -11.0204 -11.0153 -10.9436
   -10.8597 -10.8390 -10.5365 -10.5331 -10.5097 -10.4900 -10.4695 -10.4601
    -8.9241  -8.6746  -8.6463  -7.6546  -7.4220  -7.1579  -6.8608  -6.5242
    -6.4952  -5.7631  -5.7200  -5.0689  -4.8388  -4.8000  -4.5025  -4.0742
    -4.0703  -4.0113  -3.9718  -3.8137  -3.7616  -3.6288  -3.4934  -3.4599
    -3.4368  -3.2990  -3.0665  -3.0253  -2.8309  -2.7290  -2.6556  -2.3994
    -2.1547  -2.0648  -1.7675  -1.6586  -1.5647  -1.5480  -1.3794  -1.2926
    -1.2454  -1.2153  -1.1270  -1.1167  -0.9236  -0.8531  -0.8039  -0.7549
    -0.7351  -0.5471  -0.5098  -0.3897  -0.2659  -0.2167   0.0381   0.0455
     0.1244   0.1556   0.1896   0.2641   0.3096   0.3222   0.3979   0.4616
     0.4705   0.5925   0.6217   0.6517   0.7198   0.7552   0.7954   0.9358
     0.9452   1.1876   4.0662   4.0990   5.1363   6.4510   6.4770   7.1624
     7.3843   7.4988   7.5130   7.6838   7.8572   8.1832   8.2276   8.5461
     8.5847   8.6095   8.7720   8.8862   9.1934   9.2217

          k = 0.0000 0.0000-0.7630 ( 10796 PWs)   bands (ev):

   -26.5759 -26.4198 -26.4061 -26.2179 -25.8331 -25.8196 -22.4359 -22.3846
   -22.2469 -21.5351 -21.4483 -21.2095 -21.1164 -21.0007 -20.7955 -20.1547
   -20.1391 -19.9391 -19.9039 -19.7542 -19.7217 -19.6242 -19.6214 -19.3473
   -19.3063 -19.1701 -18.6263 -18.3983 -18.0953 -17.7828 -11.3115 -11.2475
   -11.1959 -11.1615 -11.1546 -11.0421 -11.0356 -11.0295 -11.0200 -10.9400
   -10.8588 -10.8381 -10.5239 -10.5191 -10.5055 -10.4893 -10.4699 -10.4610
    -8.9123  -8.6563  -8.6501  -7.6478  -7.4141  -7.1701  -6.8654  -6.5210
    -6.5037  -5.7508  -5.6977  -5.0842  -4.8177  -4.7508  -4.5091  -4.0691
    -4.0638  -3.9940  -3.9870  -3.8189  -3.7392  -3.6714  -3.4816  -3.4474
    -3.4278  -3.3157  -3.1405  -3.0605  -2.8299  -2.7062  -2.6602  -2.3935
    -2.1153  -1.9555  -1.7239  -1.6688  -1.6057  -1.5571  -1.3612  -1.3462
    -1.2213  -1.2065  -1.0968  -1.0916  -0.9341  -0.8112  -0.8057  -0.7776
    -0.6975  -0.5283  -0.4691  -0.3719  -0.2437  -0.1986   0.0028   0.0227
     0.1144   0.1410   0.1896   0.2514   0.3717   0.3849   0.4683   0.5066
     0.5348   0.5877   0.6460   0.7305   0.7344   0.7953   0.8138   0.9333
     0.9415   1.1542   4.1080   4.1257   5.7546   6.4319   6.7463   6.7773
     7.3810   7.5233   7.5373   7.8746   8.0633   8.0675   8.1105   8.1910
     8.3016   8.4257   8.5232   8.5464   8.7234   8.8409

          k = 0.0000-0.5043 0.0000 ( 10800 PWs)   bands (ev):

   -26.5758 -26.4141 -26.4140 -26.2185 -25.8265 -25.8265 -22.4168 -22.3922
   -22.2362 -21.5405 -21.4353 -21.2323 -21.0855 -21.0197 -20.7907 -20.1782
   -20.1376 -19.9500 -19.8865 -19.7592 -19.7228 -19.6242 -19.6238 -19.3504
   -19.3076 -19.1721 -18.6279 -18.4010 -18.0934 -17.7843 -11.3096 -11.2471
   -11.2001 -11.1552 -11.1547 -11.0325 -11.0282 -11.0196 -11.0182 -10.9449
   -10.8598 -10.8390 -10.5353 -10.5340 -10.5012 -10.4981 -10.4652 -10.4651
    -8.8864  -8.7458  -8.6071  -7.6503  -7.2957  -7.2579  -6.8732  -6.5178
    -6.4033  -5.8865  -5.6388  -5.0496  -4.8905  -4.7499  -4.5026  -4.0908
    -4.0429  -4.0318  -3.9330  -3.8200  -3.7919  -3.5638  -3.5091  -3.4620
    -3.3481  -3.3120  -3.0744  -3.0543  -2.8445  -2.7433  -2.5740  -2.3883
    -2.1343  -2.0771  -1.7461  -1.6609  -1.5232  -1.5005  -1.4229  -1.2927
    -1.2793  -1.1620  -1.1025  -1.0806  -0.9212  -0.8821  -0.8194  -0.7228
    -0.7195  -0.5308  -0.4960  -0.4129  -0.2415  -0.2353   0.0315   0.0629
     0.1440   0.1584   0.1835   0.2480   0.2950   0.3643   0.3753   0.4443
     0.5457   0.5829   0.6460   0.6520   0.7098   0.7593   0.7909   0.9485
     1.0077   1.1385   4.0703   4.1071   5.4661   5.7380   6.9362   7.0107
     7.3893   7.5355   7.6252   7.7197   7.9548   8.0722   8.2755   8.5238
     8.5380   8.5535   8.8294   8.8317   9.1807   9.2616

          k = 0.0000-0.5043-0.7630 ( 10804 PWs)   bands (ev):

   -26.5776 -26.4154 -26.4153 -26.2204 -25.8287 -25.8286 -22.4233 -22.4007
   -22.2421 -21.5415 -21.4369 -21.2341 -21.0841 -21.0190 -20.7923 -20.1705
   -20.1290 -19.9500 -19.8848 -19.7617 -19.7225 -19.6242 -19.6208 -19.3516
   -19.3065 -19.1705 -18.6323 -18.3980 -18.0972 -17.7817 -11.3115 -11.2476
   -11.1979 -11.1575 -11.1560 -11.0426 -11.0337 -11.0259 -11.0253 -10.9408
   -10.8589 -10.8380 -10.5223 -10.5196 -10.4998 -10.4955 -10.4658 -10.4658
    -8.8772  -8.7445  -8.6188  -7.6656  -7.3047  -7.2769  -6.8874  -6.5369
    -6.4297  -5.8876  -5.6354  -5.0810  -4.8558  -4.7177  -4.5060  -4.0750
    -4.0513  -4.0473  -3.9628  -3.8066  -3.7686  -3.6075  -3.5087  -3.4827
    -3.3491  -3.3410  -3.1211  -3.1045  -2.8600  -2.7570  -2.5812  -2.3840
    -2.0711  -2.0261  -1.7009  -1.6945  -1.5913  -1.4865  -1.4385  -1.3565
    -1.3462  -1.1271  -1.0888  -1.0701  -0.9270  -0.8611  -0.8279  -0.7492
    -0.7029  -0.5161  -0.4729  -0.4013  -0.2433  -0.2295  -0.0103   0.0122
     0.1656   0.1668   0.1952   0.2851   0.3062   0.3362   0.4590   0.4842
     0.5348   0.5872   0.7094   0.7429   0.7680   0.7841   0.7962   0.8874
     0.9940   1.0981   4.1041   4.1257   6.0325   6.3007   6.7171   6.9173
     7.2230   7.2473   7.6408   7.6873   8.0022   8.0787   8.2084   8.2844
     8.3085   8.3180   8.5440   8.7432   8.8883   9.0566

          k =-0.5000 0.0000 0.0000 ( 10836 PWs)   bands (ev):

   -26.5851 -26.4237 -26.4236 -26.2279 -25.8358 -25.8358 -22.4202 -22.3944
   -22.2393 -21.5378 -21.4424 -21.2350 -21.0900 -21.0182 -20.7968 -20.1717
   -20.1402 -19.9523 -19.8914 -19.7586 -19.7253 -19.6371 -19.6146 -19.3540
   -19.3098 -19.1724 -18.6290 -18.4027 -18.0978 -17.7858 -11.3101 -11.2474
   -11.1998 -11.1555 -11.1549 -11.0321 -11.0287 -11.0203 -11.0179 -10.9444
   -10.8603 -10.8391 -10.5362 -10.5338 -10.5037 -10.4966 -10.4660 -10.4645
    -8.9002  -8.7568  -8.6109  -7.6734  -7.3031  -7.2721  -6.8796  -6.5863
    -6.3665  -5.8506  -5.6863  -5.0433  -4.8449  -4.7940  -4.5154  -4.1638
    -4.0743  -4.0150  -3.9313  -3.7916  -3.7830  -3.5884  -3.4967  -3.4604
    -3.4118  -3.3478  -3.0557  -3.0413  -2.8533  -2.7695  -2.6400  -2.4251
    -2.1513  -2.0943  -1.7541  -1.6659  -1.4997  -1.4889  -1.4086  -1.3693
    -1.2368  -1.2171  -1.1583  -1.0499  -0.9325  -0.8821  -0.8128  -0.7564
    -0.7428  -0.5777  -0.4814  -0.3864  -0.2438  -0.2028  -0.0688   0.0265
     0.1485   0.1551   0.2421   0.2707   0.2732   0.3279   0.3878   0.3926
     0.4703   0.6129   0.6391   0.7025   0.7050   0.7590   0.7718   0.9536
     0.9667   1.1336   4.0544   4.0796   5.6340   5.7110   6.8615   7.0213
     7.0404   7.1814   7.7616   7.7633   8.1770   8.2738   8.3115   8.5218
     8.6309   8.6954   8.8822   8.9646   9.0905   9.3269

          k =-0.5000 0.0000-0.7630 ( 10820 PWs)   bands (ev):

   -26.5815 -26.4195 -26.4194 -26.2242 -25.8327 -25.8327 -22.4244 -22.4012
   -22.2445 -21.5391 -21.4436 -21.2356 -21.0862 -21.0146 -20.7932 -20.1647
   -20.1328 -19.9511 -19.8889 -19.7613 -19.7227 -19.6374 -19.6121 -19.3540
   -19.3070 -19.1696 -18.6299 -18.3993 -18.0973 -17.7836 -11.3123 -11.2475
   -11.1973 -11.1578 -11.1562 -11.0388 -11.0382 -11.0279 -11.0228 -10.9405
   -10.8591 -10.8380 -10.5225 -10.5196 -10.5014 -10.4945 -10.4665 -10.4653
    -8.8916  -8.7536  -8.6158  -7.6786  -7.2996  -7.2825  -6.8859  -6.5990
    -6.3952  -5.8442  -5.6775  -5.0622  -4.8242  -4.7541  -4.5304  -4.1589
    -4.0544  -4.0417  -3.9190  -3.7819  -3.7773  -3.6203  -3.4830  -3.4557
    -3.4159  -3.3774  -3.1186  -3.0984  -2.8294  -2.7409  -2.6399  -2.4208
    -2.0690  -2.0254  -1.7088  -1.6713  -1.5621  -1.5356  -1.4155  -1.4060
    -1.2401  -1.1960  -1.1272  -1.0463  -0.9490  -0.8495  -0.8277  -0.7449
    -0.7135  -0.5730  -0.4799  -0.3812  -0.2466  -0.2130  -0.0871   0.0561
     0.1233   0.1600   0.2265   0.2691   0.2825   0.3404   0.4194   0.4676
     0.5602   0.6297   0.6774   0.7216   0.7698   0.7722   0.8181   0.9167
     0.9398   1.1199   4.0998   4.1126   6.1503   6.2348   6.7987   6.8514
     7.1496   7.2676   7.3176   7.6234   8.0084   8.0408   8.3150   8.3520
     8.4554   8.5099   8.5467   8.6776   8.9734   9.0858

          k =-0.5000-0.5043 0.0000 ( 10844 PWs)   bands (ev):

   -26.5865 -26.4252 -26.4247 -26.2293 -25.8374 -25.8372 -22.4329 -22.3738
   -22.2449 -21.5256 -21.4450 -21.2364 -21.1134 -20.9992 -20.7975 -20.1756
   -20.1494 -19.9426 -19.8978 -19.7577 -19.7251 -19.6414 -19.6131 -19.3548
   -19.3084 -19.1741 -18.6301 -18.4023 -18.0960 -17.7871 -11.3101 -11.2481
   -11.1987 -11.1598 -11.1522 -11.0357 -11.0267 -11.0215 -11.0147 -10.9444
   -10.8600 -10.8391 -10.5351 -10.5347 -10.5076 -10.4948 -10.4649 -10.4632
    -8.9049  -8.7184  -8.6702  -7.6788  -7.3668  -7.1727  -6.9025  -6.5358
    -6.4708  -5.7697  -5.7500  -5.0372  -4.9118  -4.7548  -4.5325  -4.1266
    -4.0801  -3.9766  -3.9538  -3.9033  -3.7237  -3.5698  -3.5462  -3.4558
    -3.3428  -3.3267  -3.0778  -3.0646  -2.8781  -2.7378  -2.5987  -2.3987
    -2.1867  -2.0384  -1.7505  -1.6465  -1.5759  -1.4830  -1.4386  -1.3406
    -1.2369  -1.1569  -1.1443  -1.0490  -0.9322  -0.9000  -0.8797  -0.7671
    -0.7328  -0.5473  -0.5327  -0.3642  -0.3197  -0.2294  -0.0795   0.0368
     0.1316   0.1522   0.2342   0.2670   0.2884   0.3531   0.3661   0.4126
     0.5419   0.6033   0.6384   0.6750   0.7041   0.7578   0.7687   0.9410
     0.9662   1.1280   4.0092   4.1270   5.6959   6.0241   6.3641   6.4670
     7.4447   7.7427   7.7647   7.8079   8.0355   8.2169   8.2262   8.4562
     8.6550   8.6744   8.8108   8.8933   8.9762   9.1846

          k =-0.5000-0.5043-0.7630 ( 10768 PWs)   bands (ev):

   -26.5685 -26.4062 -26.4058 -26.2108 -25.8194 -25.8194 -22.4308 -22.3798
   -22.2473 -21.5265 -21.4444 -21.2313 -21.1109 -20.9927 -20.7939 -20.1597
   -20.1364 -19.9383 -19.8956 -19.7542 -19.7197 -19.6353 -19.6084 -19.3476
   -19.3045 -19.1677 -18.6272 -18.3978 -18.0939 -17.7812 -11.3122 -11.2480
   -11.1958 -11.1613 -11.1542 -11.0397 -11.0358 -11.0322 -11.0179 -10.9404
   -10.8585 -10.8378 -10.5224 -10.5198 -10.5040 -10.4928 -10.4655 -10.4638
    -8.8953  -8.6864  -8.6433  -7.6828  -7.3550  -7.1826  -6.8707  -6.5293
    -6.4675  -5.7479  -5.7364  -5.0504  -4.8497  -4.6981  -4.5180  -4.0755
    -4.0552  -3.9844  -3.9591  -3.8532  -3.6961  -3.5713  -3.5370  -3.4507
    -3.3463  -3.3171  -3.1226  -3.0940  -2.8898  -2.7354  -2.5987  -2.3863
    -2.0903  -1.9687  -1.6789  -1.6458  -1.6418  -1.4660  -1.4450  -1.3278
    -1.2950  -1.1798  -1.1065  -0.9817  -0.8999  -0.8682  -0.8424  -0.7283
    -0.6914  -0.4745  -0.4735  -0.3561  -0.2816  -0.1915  -0.0150   0.0715
     0.1396   0.1833   0.2517   0.2575   0.3324   0.3993   0.4269   0.5373
     0.5471   0.6212   0.7060   0.7503   0.7517   0.8265   0.8334   0.9363
     0.9691   1.1519   4.0637   4.1634   6.2584   6.5311   6.5787   6.8222
     7.1915   7.3632   7.4344   7.4545   7.5267   7.9248   8.1153   8.4389
     8.6029   8.7232   8.7326   8.7680   8.9337   9.1022

     the Fermi energy is     0.8164 ev

!    total energy              =   -1221.96454906 Ry
     estimated scf accuracy    <       0.00648378 Ry
     smearing contrib. (-TS)   =      -0.02397148 Ry
     internal energy E=F+TS    =   -1221.94057758 Ry

     The total energy is F=E-TS. E is the sum of the following terms:
     one-electron contribution =    -818.18604241 Ry
     hartree contribution      =     494.68817669 Ry
     xc contribution           =    -301.48412664 Ry
     ewald contribution        =    -596.95858522 Ry

     convergence has been achieved in  21 iterations

     Forces acting on atoms (cartesian axes, Ry/au):

     atom    1 type  1   force =     0.00081169   -0.01043549    0.00532875
     atom    2 type  1   force =    -0.00081169    0.01043549    0.00532875
     atom    3 type  2   force =    -0.01498143   -0.05183892    0.08123458
     atom    4 type  2   force =     0.01498143    0.05183892    0.08123458
     atom    5 type  4   force =     0.01919164   -0.03400898   -0.00548026
     atom    6 type  4   force =    -0.01919164    0.03400898   -0.00548026
     atom    7 type  3   force =     0.01208804    0.02100671    0.01952568
     atom    8 type  3   force =    -0.03261929   -0.07136659    0.06352790
     atom    9 type  3   force =     0.03261929    0.07136659    0.06352790
     atom   10 type  3   force =    -0.01208804   -0.02100671    0.01952568
     atom   11 type  3   force =    -0.02735897   -0.02983051   -0.01393218
     atom   12 type  3   force =     0.03608062    0.08331867   -0.04550872
     atom   13 type  3   force =    -0.03608062   -0.08331867   -0.04550872
     atom   14 type  3   force =     0.02735897    0.02983051   -0.01393218
     atom   15 type  1   force =     0.00000000    0.00000000   -0.01042168
     atom   16 type  1   force =     0.00000000    0.00000000   -0.01147589
     atom   17 type  2   force =     0.00000000    0.00000000    0.08800343
     atom   18 type  2   force =     0.00000000    0.00000000   -0.05935597
     atom   19 type  4   force =    -0.05068630   -0.06907837   -0.00836963
     atom   20 type  4   force =     0.05645108    0.07476672   -0.01382527
     atom   21 type  4   force =    -0.05645108   -0.07476672   -0.01382527
     atom   22 type  4   force =     0.05068630    0.06907837   -0.00836963
     atom   23 type  3   force =    -0.00019342   -0.08080607    0.06612151
     atom   24 type  3   force =    -0.01706209    0.08067206    0.06658924
     atom   25 type  3   force =     0.01706209   -0.08067206    0.06658924
     atom   26 type  3   force =     0.00019342    0.08080607    0.06612151
     atom   27 type  3   force =    -0.01665444    0.09510305   -0.05946106
     atom   28 type  3   force =     0.00900717   -0.08796895   -0.02482265
     atom   29 type  3   force =    -0.00900717    0.08796895   -0.02482265
     atom   30 type  3   force =     0.01665444   -0.09510305   -0.05946106
     atom   31 type  1   force =    -0.00156313   -0.00545181   -0.01388859
     atom   32 type  1   force =     0.00156313    0.00545181   -0.01388859
     atom   33 type  2   force =     0.03390317    0.00173810   -0.01628946
     atom   34 type  2   force =    -0.03390317   -0.00173810   -0.01628946
     atom   35 type  4   force =     0.01573678   -0.05654565   -0.00328238
     atom   36 type  4   force =    -0.01573678    0.05654565   -0.00328238
     atom   37 type  3   force =    -0.04201932   -0.02871460   -0.00162026
     atom   38 type  3   force =     0.05184935   -0.07637814   -0.00150633
     atom   39 type  3   force =    -0.05184935    0.07637814   -0.00150633
     atom   40 type  3   force =     0.04201932    0.02871460   -0.00162026
     atom   41 type  3   force =    -0.02456354   -0.08744330   -0.05337545
     atom   42 type  3   force =     0.02512242    0.06074061   -0.04434037
     atom   43 type  3   force =    -0.02512242   -0.06074061   -0.04434037
     atom   44 type  3   force =     0.02456354    0.08744330   -0.05337545

     Total force =     0.283784     Total SCF correction =     0.064554
     SCF correction compared to forces is large: reduce conv_thr to get better values

     BFGS Geometry Optimization
     Energy error            =      0.0E+00
     Gradient error          =      8.8E-02

     number of scf cycles    =   1
     number of bfgs steps    =   0

     energy   new            =   -1221.9645490600 Ry

     new trust radius        =       0.1015620760 bohr
     new conv_thr            =       0.0100000000 Ry


ATOMIC_POSITIONS (angstrom)
K1+           7.8979295286        2.6044777755        7.9820758514
K1+           2.6320704714        7.8355222245        7.9820758514
P5+           2.6245721705        2.5825680251        7.9394434875
P5+           7.9054278295        7.8574319749        7.9394434875
H1+           1.9897957801        4.8105032222        7.0897059701
H1+           8.5402042199        5.6294967778        7.0897059701
O2-           6.4928767144        0.3712962730        7.0856885470
O2-           9.2912586132        4.8220544257        7.1089735176
O2-           1.2387413868        5.6179455743        7.1089735176
O2-           4.0371232856       10.0687037270        7.0856885470
O2-           2.2547372566        1.3831743747        7.0369334086
O2-           3.0148780410        3.8651303424        7.0202238249
O2-           7.5151219590        6.5748696576        7.0202238249
O2-           8.2752627434        9.0568256253        7.0369334086
K1+           0.0000000000        0.0000000000        6.2487410852
K1+           5.2650000000        5.2200000000        6.2481832225
P5+           5.2650000000        0.0000000000        6.2180254119
P5+           0.0000000000        5.2200000000        6.1400461746
H1+           5.9178600000        2.2185000000        5.3676060000    0   0   0
H1+           9.8771400000        3.0015000000        5.3676060000    0   0   0
H1+           0.6528600000        7.4385000000        5.3676060000    0   0   0
H1+           4.6121400000        8.2215000000        5.3676060000    0   0   0
O2-           9.1189800000        2.2498200000        5.3503560000    0   0   0
O2-           6.6760200000        2.9701800000        5.3503560000    0   0   0
O2-           3.8539800000        7.4698200000        5.3503560000    0   0   0
O2-           1.4110200000        8.1901800000        5.3503560000    0   0   0
O2-           4.9017150000        1.2110400000        5.3193060000    0   0   0
O2-           0.3632850000        4.0089600000        5.3193060000    0   0   0
O2-          10.1667150000        6.4310400000        5.3193060000    0   0   0
O2-           5.6282850000        9.2289600000        5.3193060000    0   0   0
K1+           2.6325000000        2.6100000000        4.5292560000    0   0   0
K1+           7.8975000000        7.8300000000        4.5292560000    0   0   0
P5+           7.8975000000        2.6100000000        4.4464560000    0   0   0
P5+           2.6325000000        7.8300000000        4.4464560000    0   0   0
H1+           7.2446400000        4.8285000000        3.6426060000    0   0   0
H1+           3.2853600000        5.6115000000        3.6426060000    0   0   0
O2-           1.2214800000        0.3601800000        3.6253560000    0   0   0
O2-           4.0435200000        4.8598200000        3.6253560000    0   0   0
O2-           6.4864800000        5.5801800000        3.6253560000    0   0   0
O2-           9.3085200000       10.0798200000        3.6253560000    0   0   0
O2-           7.5342150000        1.3989600000        3.5943060000    0   0   0
O2-           8.2607850000        3.8210400000        3.5943060000    0   0   0
O2-           2.2692150000        6.6189600000        3.5943060000    0   0   0
O2-           2.9957850000        9.0410400000        3.5943060000    0   0   0



     Writing output data file ./outdir/KDP.save/
     NEW-OLD atomic charge density approx. for the potential

     Check: negative core charge=   -0.000062

     total cpu time spent up to now is     1022.9 secs

     Self-consistent Calculation

     iteration #  1     ecut=    25.00 Ry     beta= 0.70
     Davidson diagonalization with overlap
     ethr =  1.00E-06,  avg # of iterations = 16.1

     total cpu time spent up to now is     1162.8 secs

     total energy              =   -1216.02900930 Ry
     estimated scf accuracy    <       7.25885164 Ry

     iteration #  2     ecut=    25.00 Ry     beta= 0.70
     Davidson diagonalization with overlap
     ethr =  3.08E-03,  avg # of iterations =  6.1

     total cpu time spent up to now is     1227.5 secs

     total energy              =   -1211.69307441 Ry
     estimated scf accuracy    <     137.62432173 Ry

     iteration #  3     ecut=    25.00 Ry     beta= 0.70
     Davidson diagonalization with overlap
     ethr =  3.08E-03,  avg # of iterations =  6.2

     total cpu time spent up to now is     1296.5 secs

     total energy              =   -1221.91354194 Ry
     estimated scf accuracy    <      16.41512074 Ry

     iteration #  4     ecut=    25.00 Ry     beta= 0.70
     Davidson diagonalization with overlap
     ethr =  3.08E-03,  avg # of iterations =  2.0

     total cpu time spent up to now is     1335.5 secs

     total energy              =   -1222.62746793 Ry
     estimated scf accuracy    <      10.08369377 Ry

     iteration #  5     ecut=    25.00 Ry     beta= 0.70
     Davidson diagonalization with overlap
     ethr =  3.08E-03,  avg # of iterations =  1.1

     total cpu time spent up to now is     1371.3 secs

     total energy              =   -1222.44035521 Ry
     estimated scf accuracy    <      10.37453940 Ry

     iteration #  6     ecut=    25.00 Ry     beta= 0.70
     Davidson diagonalization with overlap
     ethr =  3.08E-03,  avg # of iterations =  1.0

     total cpu time spent up to now is     1406.9 secs

     total energy              =   -1222.38763386 Ry
     estimated scf accuracy    <       8.19956100 Ry

     iteration #  7     ecut=    25.00 Ry     beta= 0.70
     Davidson diagonalization with overlap
     ethr =  3.08E-03,  avg # of iterations =  1.0

     total cpu time spent up to now is     1442.3 secs

     total energy              =   -1221.92805890 Ry
     estimated scf accuracy    <       6.68642698 Ry

     iteration #  8     ecut=    25.00 Ry     beta= 0.70
     Davidson diagonalization with overlap
     ethr =  2.83E-03,  avg # of iterations =  1.0

     total cpu time spent up to now is     1478.0 secs

     total energy              =   -1222.01186489 Ry
     estimated scf accuracy    <       0.72455233 Ry

     iteration #  9     ecut=    25.00 Ry     beta= 0.70
     Davidson diagonalization with overlap
     ethr =  3.07E-04,  avg # of iterations =  7.1

     total cpu time spent up to now is     1520.0 secs

     total energy              =   -1222.02193909 Ry
     estimated scf accuracy    <       0.60945013 Ry

     iteration # 10     ecut=    25.00 Ry     beta= 0.70
     Davidson diagonalization with overlap
     ethr =  2.58E-04,  avg # of iterations =  2.5

     negative rho (up, down):  1.185E-04 0.000E+00

     total cpu time spent up to now is     1557.0 secs

     total energy              =   -1221.86764672 Ry
     estimated scf accuracy    <       0.53115674 Ry

     iteration # 11     ecut=    25.00 Ry     beta= 0.70
     Davidson diagonalization with overlap
     ethr =  2.25E-04,  avg # of iterations =  7.5

     total cpu time spent up to now is     1601.1 secs

     total energy              =   -1221.77365440 Ry
     estimated scf accuracy    <       8.34791254 Ry

     iteration # 12     ecut=    25.00 Ry     beta= 0.70
     Davidson diagonalization with overlap
     ethr =  2.25E-04,  avg # of iterations =  2.0

     total cpu time spent up to now is     1641.5 secs

     total energy              =   -1222.01300623 Ry
     estimated scf accuracy    <       0.22190480 Ry

     iteration # 13     ecut=    25.00 Ry     beta= 0.70
     Davidson diagonalization with overlap
     ethr =  9.40E-05,  avg # of iterations =  1.1

     total cpu time spent up to now is     1677.5 secs

     total energy              =   -1222.01457749 Ry
     estimated scf accuracy    <       0.22280710 Ry

     iteration # 14     ecut=    25.00 Ry     beta= 0.70
     Davidson diagonalization with overlap
     ethr =  9.40E-05,  avg # of iterations =  1.0

     total cpu time spent up to now is     1712.6 secs

     total energy              =   -1221.99729402 Ry
     estimated scf accuracy    <       0.28102282 Ry

     iteration # 15     ecut=    25.00 Ry     beta= 0.70
     Davidson diagonalization with overlap
     ethr =  9.40E-05,  avg # of iterations =  1.0

     total cpu time spent up to now is     1748.0 secs

     total energy              =   -1221.99898356 Ry
     estimated scf accuracy    <       0.24778517 Ry

     iteration # 16     ecut=    25.00 Ry     beta= 0.70
     Davidson diagonalization with overlap
     ethr =  9.40E-05,  avg # of iterations =  1.0

     total cpu time spent up to now is     1783.5 secs

     total energy              =   -1221.99716689 Ry
     estimated scf accuracy    <       0.12856718 Ry

     iteration # 17     ecut=    25.00 Ry     beta= 0.70
     Davidson diagonalization with overlap
     ethr =  5.45E-05,  avg # of iterations =  1.2

     total cpu time spent up to now is     1821.1 secs

     total energy              =   -1221.99946820 Ry
     estimated scf accuracy    <       0.04059552 Ry

     iteration # 18     ecut=    25.00 Ry     beta= 0.70
     Davidson diagonalization with overlap
     ethr =  1.72E-05,  avg # of iterations =  6.1

     total cpu time spent up to now is     1864.2 secs

     total energy              =   -1221.99999498 Ry
     estimated scf accuracy    <       0.04734648 Ry

     iteration # 19     ecut=    25.00 Ry     beta= 0.70
     Davidson diagonalization with overlap
     ethr =  1.72E-05,  avg # of iterations =  1.0

     total cpu time spent up to now is     1908.6 secs

     total energy              =   -1221.99848081 Ry
     estimated scf accuracy    <       0.02971782 Ry

     iteration # 20     ecut=    25.00 Ry     beta= 0.70
     Davidson diagonalization with overlap
     c_bands:  1 eigenvalues not converged
     ethr =  1.26E-05,  avg # of iterations =  5.0

     total cpu time spent up to now is     1980.5 secs

     total energy              =   -1221.99846652 Ry
     estimated scf accuracy    <       0.09070810 Ry

     iteration # 21     ecut=    25.00 Ry     beta= 0.70
     Davidson diagonalization with overlap
     ethr =  1.26E-05,  avg # of iterations =  1.1

     total cpu time spent up to now is     2039.4 secs

     total energy              =   -1221.99136830 Ry
     estimated scf accuracy    <       0.03471890 Ry

     iteration # 22     ecut=    25.00 Ry     beta= 0.70
     Davidson diagonalization with overlap
     ethr =  1.26E-05,  avg # of iterations =  3.1

     total cpu time spent up to now is     2116.6 secs

     total energy              =   -1221.98839229 Ry
     estimated scf accuracy    <       0.14721647 Ry

     iteration # 23     ecut=    25.00 Ry     beta= 0.70
     Davidson diagonalization with overlap
     ethr =  1.26E-05,  avg # of iterations =  2.0

     total cpu time spent up to now is     2190.0 secs

     total energy              =   -1221.99633869 Ry
     estimated scf accuracy    <       0.02583562 Ry

     iteration # 24     ecut=    25.00 Ry     beta= 0.70
     Davidson diagonalization with overlap
     ethr =  1.09E-05,  avg # of iterations =  1.0

     total cpu time spent up to now is     2248.5 secs

     End of self-consistent calculation

          k = 0.0000 0.0000 0.0000 ( 10821 PWs)   bands (ev):

   -26.4125 -26.3713 -26.3492 -26.2546 -25.8533 -25.8273 -22.4424 -22.4308
   -21.7353 -21.4831 -21.1539 -21.0142 -20.7578 -20.6107 -20.2561 -20.2220
   -20.2076 -19.8866 -19.7181 -19.7140 -19.6372 -19.5900 -19.5520 -19.4935
   -19.3980 -19.3076 -18.7083 -18.4801 -18.1243 -17.8137 -11.1633 -11.1124
   -11.0964 -11.0631 -11.0204 -10.9747 -10.9702 -10.9701 -10.9682 -10.9529
   -10.8934 -10.8693 -10.5370 -10.5339 -10.5222 -10.5032 -10.4798 -10.4710
    -8.8553  -8.7148  -8.1716  -7.4573  -7.4493  -7.1679  -6.8898  -6.5478
    -6.0073  -5.8073  -5.7812  -5.0076  -4.8730  -4.8321  -4.3829  -4.1098
    -4.0667  -3.9408  -3.8149  -3.6681  -3.6596  -3.5896  -3.5265  -3.5040
    -3.2626  -3.2330  -2.8903  -2.7634  -2.7050  -2.6835  -2.4974  -2.3207
    -2.1822  -2.1035  -1.7070  -1.5792  -1.5206  -1.3928  -1.3381  -1.3076
    -1.2305  -1.0680  -1.0637  -0.9807  -0.8949  -0.8835  -0.8194  -0.7326
    -0.6421  -0.5647  -0.4314  -0.3416  -0.2484  -0.2287   0.0052   0.0230
     0.0670   0.1398   0.1961   0.2154   0.2448   0.2671   0.3303   0.3805
     0.3914   0.5394   0.5713   0.5842   0.6574   0.6787   0.7365   0.8679
     0.8876   1.1400   3.7492   3.7832   5.1430   6.4042   6.5209   7.1099
     7.1858   7.3631   7.4354   7.6923   7.7779   8.1694   8.2318   8.4410
     8.5395   8.6227   8.7038   8.8079   9.1147   9.2645

          k = 0.0000 0.0000-0.7630 ( 10796 PWs)   bands (ev):

   -26.4062 -26.3583 -26.3450 -26.2489 -25.8418 -25.8283 -22.4546 -22.4326
   -21.7325 -21.4846 -21.1552 -21.0098 -20.7528 -20.6121 -20.2476 -20.2135
   -20.2070 -19.8865 -19.7130 -19.7128 -19.6344 -19.5883 -19.5507 -19.4920
   -19.3950 -19.3054 -18.7063 -18.4781 -18.1242 -17.8109 -11.1666 -11.1125
   -11.0994 -11.0633 -11.0186 -10.9901 -10.9833 -10.9708 -10.9615 -10.9546
   -10.8916 -10.8688 -10.5264 -10.5195 -10.5159 -10.5029 -10.4804 -10.4720
    -8.8550  -8.6899  -8.1725  -7.4508  -7.4482  -7.1859  -6.8949  -6.5399
    -6.0111  -5.7929  -5.7633  -5.0269  -4.8518  -4.7852  -4.3876  -4.1053
    -4.0602  -3.9701  -3.7874  -3.7004  -3.6573  -3.5825  -3.5023  -3.4932
    -3.2693  -3.2334  -2.8796  -2.7897  -2.7606  -2.7048  -2.5158  -2.3210
    -2.1467  -1.9894  -1.7122  -1.6401  -1.5062  -1.3631  -1.3093  -1.2973
    -1.2333  -1.0847  -1.0572  -0.9536  -0.8868  -0.8494  -0.8298  -0.7404
    -0.5980  -0.5418  -0.3756  -0.3279  -0.2363  -0.1967  -0.0474  -0.0332
     0.0744   0.0867   0.2126   0.2912   0.2974   0.3216   0.4059   0.4368
     0.4719   0.4765   0.6027   0.6545   0.6615   0.7288   0.7347   0.8711
     0.8836   1.1067   3.7861   3.8103   5.7455   6.4334   6.6820   6.8174
     7.1963   7.3713   7.4528   7.8720   8.0278   8.0770   8.0928   8.1946
     8.3192   8.4084   8.4207   8.4646   8.6825   8.8243

          k = 0.0000-0.5043 0.0000 ( 10800 PWs)   bands (ev):

   -26.4052 -26.3539 -26.3522 -26.2499 -25.8352 -25.8352 -22.4365 -22.4330
   -21.7207 -21.5026 -21.1051 -21.0521 -20.7453 -20.6182 -20.2391 -20.2244
   -20.2159 -19.8922 -19.7143 -19.7133 -19.6353 -19.5831 -19.5580 -19.4924
   -19.3985 -19.3071 -18.7079 -18.4805 -18.1225 -17.8124 -11.1632 -11.1186
   -11.0902 -11.0607 -11.0208 -10.9759 -10.9716 -10.9697 -10.9619 -10.9590
   -10.8941 -10.8692 -10.5360 -10.5345 -10.5136 -10.5117 -10.4758 -10.4755
    -8.7888  -8.7828  -8.1578  -7.4700  -7.3313  -7.2883  -6.8476  -6.4906
    -6.0059  -5.9086  -5.7054  -4.9995  -4.9074  -4.7943  -4.3685  -4.1312
    -4.0298  -3.9933  -3.7928  -3.6930  -3.5902  -3.5635  -3.5479  -3.3551
    -3.3490  -3.2517  -2.8827  -2.8545  -2.6746  -2.6484  -2.3969  -2.3512
    -2.1625  -2.1219  -1.6835  -1.6148  -1.4823  -1.3492  -1.2756  -1.2702
    -1.1895  -1.1839  -0.9984  -0.9919  -0.9055  -0.8751  -0.8278  -0.6779
    -0.6772  -0.5454  -0.3890  -0.3530  -0.2623  -0.2349  -0.0107   0.0265
     0.1037   0.1176   0.1720   0.2308   0.2574   0.3101   0.3172   0.3575
     0.4500   0.5156   0.5997   0.6060   0.6347   0.6796   0.7291   0.8765
     0.9517   1.0971   3.7553   3.7907   5.4964   5.7106   6.9539   6.9605
     7.2565   7.4090   7.4682   7.7160   7.8079   7.9385   8.3601   8.5272
     8.5437   8.5454   8.7877   8.8330   9.0460   9.2145

          k = 0.0000-0.5043-0.7630 ( 10804 PWs)   bands (ev):

   -26.4070 -26.3546 -26.3540 -26.2519 -25.8374 -25.8373 -22.4454 -22.4422
   -21.7237 -21.5047 -21.1039 -21.0521 -20.7459 -20.6210 -20.2308 -20.2232
   -20.2097 -19.8935 -19.7132 -19.7125 -19.6339 -19.5811 -19.5574 -19.4924
   -19.3993 -19.3060 -18.7124 -18.4776 -18.1263 -17.8099 -11.1664 -11.1204
   -11.0914 -11.0608 -11.0201 -10.9947 -10.9800 -10.9664 -10.9605 -10.9600
   -10.8921 -10.8687 -10.5232 -10.5198 -10.5127 -10.5088 -10.4766 -10.4763
    -8.7853  -8.7814  -8.1662  -7.4831  -7.3394  -7.3054  -6.8646  -6.5126
    -6.0255  -5.9062  -5.7065  -5.0299  -4.8751  -4.7620  -4.3808  -4.1140
    -4.0399  -4.0325  -3.7983  -3.6782  -3.5973  -3.5786  -3.5400  -3.3894
    -3.3651  -3.2395  -2.8563  -2.8226  -2.7665  -2.7474  -2.4143  -2.3568
    -2.1009  -2.0653  -1.7110  -1.6566  -1.4714  -1.4014  -1.3284  -1.2664
    -1.2061  -1.1550  -0.9934  -0.9752  -0.9038  -0.8973  -0.8257  -0.6790
    -0.6535  -0.5410  -0.3672  -0.3401  -0.2516  -0.2498  -0.0566  -0.0340
     0.1232   0.1427   0.2184   0.2441   0.2552   0.3070   0.3857   0.3888
     0.4803   0.5242   0.6461   0.6630   0.6930   0.7159   0.7382   0.8113
     0.9349   1.0561   3.7850   3.8097   6.0611   6.2755   6.6987   6.8207
     7.1842   7.2006   7.5480   7.5536   7.9136   7.9719   8.1893   8.2826
     8.2896   8.3633   8.5327   8.7172   8.9165   9.0137

          k =-0.5000 0.0000 0.0000 ( 10836 PWs)   bands (ev):

   -26.4144 -26.3627 -26.3627 -26.2593 -25.8444 -25.8444 -22.4388 -22.4363
   -21.7238 -21.5059 -21.1057 -21.0560 -20.7450 -20.6231 -20.2430 -20.2323
   -20.2069 -19.8907 -19.7251 -19.7105 -19.6391 -19.5808 -19.5578 -19.4975
   -19.4011 -19.3081 -18.7090 -18.4824 -18.1267 -17.8139 -11.1637 -11.1184
   -11.0896 -11.0616 -11.0210 -10.9773 -10.9713 -10.9694 -10.9602 -10.9599
   -10.8947 -10.8693 -10.5367 -10.5347 -10.5154 -10.5104 -10.4764 -10.4752
    -8.8006  -8.7942  -8.1583  -7.4804  -7.3440  -7.3132  -6.8566  -6.5115
    -6.0114  -5.8700  -5.7545  -4.9883  -4.8698  -4.8360  -4.3913  -4.1668
    -4.0532  -4.0172  -3.7962  -3.6755  -3.6125  -3.5594  -3.5080  -3.3664
    -3.3604  -3.3133  -2.8515  -2.8380  -2.7025  -2.7008  -2.4692  -2.3720
    -2.1859  -2.1238  -1.7071  -1.6191  -1.4283  -1.3572  -1.2824  -1.2765
    -1.2511  -1.1998  -1.0392  -0.9832  -0.9166  -0.8925  -0.8410  -0.7075
    -0.6710  -0.5832  -0.3688  -0.3242  -0.2623  -0.2215  -0.0934   0.0179
     0.0722   0.1780   0.1968   0.2345   0.2381   0.2748   0.3050   0.3105
     0.4014   0.5557   0.5728   0.6235   0.6470   0.6932   0.7031   0.8759
     0.9172   1.0912   3.7449   3.7663   5.6718   5.7041   6.7709   6.9495
     7.0141   7.0998   7.6066   7.6076   8.1045   8.1989   8.3727   8.4994
     8.5445   8.6195   8.8632   8.9369   8.9722   9.0027

          k =-0.5000 0.0000-0.7630 ( 10820 PWs)   bands (ev):

   -26.4109 -26.3585 -26.3583 -26.2557 -25.8414 -25.8414 -22.4459 -22.4437
   -21.7255 -21.5073 -21.1027 -21.0523 -20.7455 -20.6227 -20.2411 -20.2252
   -20.1988 -19.8932 -19.7253 -19.7058 -19.6356 -19.5777 -19.5611 -19.4957
   -19.4004 -19.3044 -18.7100 -18.4790 -18.1262 -17.8117 -11.1671 -11.1201
   -11.0908 -11.0613 -11.0199 -10.9965 -10.9790 -10.9638 -10.9618 -10.9607
   -10.8925 -10.8687 -10.5232 -10.5200 -10.5138 -10.5082 -10.4772 -10.4760
    -8.7953  -8.7910  -8.1648  -7.4928  -7.3417  -7.3214  -6.8616  -6.5281
    -6.0250  -5.8565  -5.7499  -5.0115  -4.8497  -4.7966  -4.4121  -4.1579
    -4.0388  -4.0386  -3.7807  -3.6658  -3.6322  -3.5696  -3.5136  -3.3824
    -3.3717  -3.2770  -2.8395  -2.8008  -2.7712  -2.7633  -2.4642  -2.3837
    -2.1047  -2.0595  -1.7088  -1.6536  -1.4964  -1.3203  -1.2960  -1.2915
    -1.2201  -1.2137  -1.0064  -0.9747  -0.9238  -0.8800  -0.8381  -0.6926
    -0.6583  -0.5825  -0.3480  -0.3156  -0.2744  -0.2307  -0.1219   0.0061
     0.0929   0.1825   0.1978   0.1985   0.2268   0.3076   0.3652   0.3951
     0.5008   0.5423   0.6102   0.6483   0.6993   0.7182   0.7331   0.8507
     0.8803   1.0771   3.7835   3.7971   6.1909   6.2083   6.7513   6.7630
     7.1716   7.1949   7.2473   7.4564   7.9173   7.9317   8.3587   8.3662
     8.4030   8.4545   8.5816   8.7350   8.9146   8.9171

          k =-0.5000-0.5043 0.0000 ( 10844 PWs)   bands (ev):

   -26.4158 -26.3641 -26.3637 -26.2607 -25.8461 -25.8459 -22.4503 -22.4217
   -21.7347 -21.4775 -21.1516 -21.0291 -20.7491 -20.6097 -20.2576 -20.2241
   -20.2176 -19.8893 -19.7301 -19.7050 -19.6381 -19.5860 -19.5575 -19.4931
   -19.4050 -19.3073 -18.7100 -18.4820 -18.1249 -17.8153 -11.1640 -11.1123
   -11.0975 -11.0630 -11.0203 -10.9760 -10.9715 -10.9697 -10.9664 -10.9526
   -10.8939 -10.8694 -10.5359 -10.5352 -10.5196 -10.5083 -10.4753 -10.4743
    -8.8365  -8.7599  -8.1889  -7.4895  -7.3892  -7.1939  -6.9273  -6.5047
    -6.0501  -5.8072  -5.8007  -4.9838  -4.9448  -4.7902  -4.4164  -4.1561
    -4.0484  -3.9628  -3.8029  -3.7405  -3.6162  -3.5692  -3.5208  -3.3684
    -3.3448  -3.2314  -2.9302  -2.8417  -2.6880  -2.6506  -2.4496  -2.3332
    -2.2237  -2.0863  -1.6798  -1.6168  -1.4442  -1.4205  -1.3426  -1.2748
    -1.1289  -1.1190  -1.0811  -1.0666  -0.9379  -0.8447  -0.8396  -0.6961
    -0.6916  -0.5595  -0.4644  -0.3275  -0.2934  -0.2452  -0.1152   0.0114
     0.0613   0.1743   0.1989   0.2397   0.2536   0.2617   0.3185   0.3344
     0.4980   0.5041   0.6001   0.6020   0.6335   0.6914   0.6956   0.8658
     0.9158   1.0860   3.6970   3.8179   5.7121   6.0335   6.3637   6.4381
     7.2325   7.5313   7.6411   7.8094   7.8170   8.1629   8.2317   8.4835
     8.6771   8.6941   8.7883   8.8785   8.9703   9.2103

          k =-0.5000-0.5043-0.7630 ( 10768 PWs)   bands (ev):

   -26.3984 -26.3452 -26.3445 -26.2420 -25.8281 -25.8281 -22.4522 -22.4278
   -21.7327 -21.4782 -21.1490 -21.0214 -20.7486 -20.6064 -20.2457 -20.2175
   -20.2043 -19.8880 -19.7234 -19.7039 -19.6314 -19.5842 -19.5490 -19.4888
   -19.3973 -19.3016 -18.7072 -18.4775 -18.1229 -17.8094 -11.1674 -11.1126
   -11.1005 -11.0630 -11.0182 -10.9916 -10.9811 -10.9695 -10.9614 -10.9541
   -10.8917 -10.8686 -10.5247 -10.5194 -10.5148 -10.5069 -10.4760 -10.4750
    -8.8251  -8.7275  -8.1713  -7.5035  -7.3798  -7.1981  -6.8982  -6.4992
    -6.0258  -5.8015  -5.7757  -5.0008  -4.8829  -4.7346  -4.4064  -4.1037
    -4.0392  -3.9675  -3.7871  -3.7015  -3.6356  -3.5651  -3.4806  -3.3682
    -3.3300  -3.2042  -2.8960  -2.8133  -2.7744  -2.7173  -2.4595  -2.3318
    -2.1247  -2.0096  -1.6865  -1.6727  -1.4489  -1.4155  -1.3125  -1.2993
    -1.1503  -1.1015  -1.0101  -1.0055  -0.8891  -0.8678  -0.8081  -0.6588
    -0.6385  -0.5064  -0.3768  -0.2844  -0.2655  -0.2216  -0.0561   0.0327
     0.1184   0.1724   0.1987   0.2600   0.2787   0.3358   0.3629   0.4595
     0.4938   0.5416   0.6599   0.6676   0.6887   0.7520   0.7610   0.8609
     0.9155   1.1100   3.7478   3.8478   6.2908   6.4827   6.5443   6.8777
     7.1412   7.2340   7.3690   7.3731   7.4378   7.6653   8.1482   8.5620
     8.6034   8.6476   8.7280   8.7536   8.9198   9.0828

     the Fermi energy is     0.7483 ev

!    total energy              =   -1221.98864635 Ry
     estimated scf accuracy    <       0.00935377 Ry
     smearing contrib. (-TS)   =      -0.02391216 Ry
     internal energy E=F+TS    =   -1221.96473419 Ry

     The total energy is F=E-TS. E is the sum of the following terms:
     one-electron contribution =    -810.15908529 Ry
     hartree contribution      =     491.19683163 Ry
     xc contribution           =    -301.11766164 Ry
     ewald contribution        =    -601.88481889 Ry

     convergence has been achieved in  24 iterations

     Forces acting on atoms (cartesian axes, Ry/au):

     atom    1 type  1   force =    -0.00059053   -0.00893124    0.00406119
     atom    2 type  1   force =     0.00059053    0.00893124    0.00406119
     atom    3 type  2   force =     0.01183286    0.03561714   -0.03266558
     atom    4 type  2   force =    -0.01183286   -0.03561714   -0.03266558
     atom    5 type  4   force =     0.00801675   -0.01211499   -0.00187849
     atom    6 type  4   force =    -0.00801675    0.01211499   -0.00187849
     atom    7 type  3   force =     0.01732317    0.02301026    0.02356791
     atom    8 type  3   force =     0.01592126   -0.02129668    0.00064403
     atom    9 type  3   force =    -0.01592126    0.02129668    0.00064403
     atom   10 type  3   force =    -0.01732317   -0.02301026    0.02356791
     atom   11 type  3   force =    -0.01661583    0.00383919    0.00963692
     atom   12 type  3   force =    -0.00538544   -0.04099544    0.04004056
     atom   13 type  3   force =     0.00538544    0.04099544    0.04004056
     atom   14 type  3   force =     0.01661583   -0.00383919    0.00963692
     atom   15 type  1   force =     0.00000000    0.00000000   -0.00378590
     atom   16 type  1   force =     0.00000000    0.00000000   -0.01034604
     atom   17 type  2   force =     0.00000000    0.00000000    0.02039880
     atom   18 type  2   force =     0.00000000    0.00000000    0.09929339
     atom   19 type  4   force =    -0.05289735   -0.07116042   -0.00799392
     atom   20 type  4   force =     0.05262685    0.07184096   -0.01290815
     atom   21 type  4   force =    -0.05262685   -0.07184096   -0.01290815
     atom   22 type  4   force =     0.05289735    0.07116042   -0.00799392
     atom   23 type  3   force =     0.00176414   -0.08009668    0.06452193
     atom   24 type  3   force =    -0.01466597    0.08023004    0.06357917
     atom   25 type  3   force =     0.01466597   -0.08023004    0.06357917
     atom   26 type  3   force =    -0.00176414    0.08009668    0.06452193
     atom   27 type  3   force =    -0.00552553    0.05806906   -0.03059424
     atom   28 type  3   force =     0.02107517   -0.11173135   -0.04601386
     atom   29 type  3   force =    -0.02107517    0.11173135   -0.04601386
     atom   30 type  3   force =     0.00552553   -0.05806906   -0.03059424
     atom   31 type  1   force =     0.00275874   -0.00006355   -0.00984694
     atom   32 type  1   force =    -0.00275874    0.00006355   -0.00984694
     atom   33 type  2   force =     0.03305382    0.00604614   -0.01522645
     atom   34 type  2   force =    -0.03305382   -0.00604614   -0.01522645
     atom   35 type  4   force =     0.01403205   -0.05440879   -0.00303776
     atom   36 type  4   force =    -0.01403205    0.05440879   -0.00303776
     atom   37 type  3   force =    -0.04481684   -0.03292663   -0.00461716
     atom   38 type  3   force =     0.05038871   -0.07393381   -0.00064229
     atom   39 type  3   force =    -0.05038871    0.07393381   -0.00064229
     atom   40 type  3   force =     0.04481684    0.03292663   -0.00461716
     atom   41 type  3   force =    -0.02386109   -0.08863325   -0.05206522
     atom   42 type  3   force =     0.02257760    0.05623053   -0.04134177
     atom   43 type  3   force =    -0.02257760   -0.05623053   -0.04134177
     atom   44 type  3   force =     0.02386109    0.08863325   -0.05206522

     Total force =     0.165977     Total SCF correction =     0.111190
     SCF correction compared to forces is large: reduce conv_thr to get better values
     Energy error            =      2.4E-02
     Gradient error          =      9.9E-02

     number of scf cycles    =   2
     number of bfgs steps    =   1

     energy   old            =   -1221.9645490600 Ry
     energy   new            =   -1221.9886463499 Ry

     CASE: energy  _new < energy  _old

     new trust radius        =       0.0695801913 bohr
     new conv_thr            =       0.0100000000 Ry


ATOMIC_POSITIONS (angstrom)
K1+           7.8977579510        2.5995355259        7.9843834881
K1+           2.6322420490        7.8404644741        7.9843834881
P5+           2.6281427526        2.5926184762        7.9337080434
P5+           7.9018572474        7.8473815238        7.9337080434
H1+           1.9952473941        4.8017472625        7.0883269214
H1+           8.5347526059        5.6382527375        7.0883269214
O2-           6.5016201596        0.3834217609        7.0979022092
O2-           9.2947749242        4.8054653749        7.1158179574
O2-           1.2352250758        5.6345346251        7.1158179574
O2-           4.0283798404       10.0565782391        7.0979022092
O2-           2.2447215104        1.3817521462        7.0396624565
O2-           3.0162773229        3.8560067482        7.0328421208
O2-           7.5137226771        6.5839932518        7.0328421208
O2-           8.2852784896        9.0582478538        7.0396624565
K1+           0.0000000000        0.0000000000        6.2460261682
K1+           5.2650000000        5.2200000000        6.2425213926
P5+           5.2650000000        0.0000000000        6.2359455077
P5+           0.0000000000        5.2200000000        6.1768664261
H1+           5.9178600000        2.2185000000        5.3676060000    0   0   0
H1+           9.8771400000        3.0015000000        5.3676060000    0   0   0
H1+           0.6528600000        7.4385000000        5.3676060000    0   0   0
H1+           4.6121400000        8.2215000000        5.3676060000    0   0   0
O2-           9.1189800000        2.2498200000        5.3503560000    0   0   0
O2-           6.6760200000        2.9701800000        5.3503560000    0   0   0
O2-           3.8539800000        7.4698200000        5.3503560000    0   0   0
O2-           1.4110200000        8.1901800000        5.3503560000    0   0   0
O2-           4.9017150000        1.2110400000        5.3193060000    0   0   0
O2-           0.3632850000        4.0089600000        5.3193060000    0   0   0
O2-          10.1667150000        6.4310400000        5.3193060000    0   0   0
O2-           5.6282850000        9.2289600000        5.3193060000    0   0   0
K1+           2.6325000000        2.6100000000        4.5292560000    0   0   0
K1+           7.8975000000        7.8300000000        4.5292560000    0   0   0
P5+           7.8975000000        2.6100000000        4.4464560000    0   0   0
P5+           2.6325000000        7.8300000000        4.4464560000    0   0   0
H1+           7.2446400000        4.8285000000        3.6426060000    0   0   0
H1+           3.2853600000        5.6115000000        3.6426060000    0   0   0
O2-           1.2214800000        0.3601800000        3.6253560000    0   0   0
O2-           4.0435200000        4.8598200000        3.6253560000    0   0   0
O2-           6.4864800000        5.5801800000        3.6253560000    0   0   0
O2-           9.3085200000       10.0798200000        3.6253560000    0   0   0
O2-           7.5342150000        1.3989600000        3.5943060000    0   0   0
O2-           8.2607850000        3.8210400000        3.5943060000    0   0   0
O2-           2.2692150000        6.6189600000        3.5943060000    0   0   0
O2-           2.9957850000        9.0410400000        3.5943060000    0   0   0



     Writing output data file ./outdir/KDP.save/
     NEW-OLD atomic charge density approx. for the potential

     Check: negative core charge=   -0.000062

     total cpu time spent up to now is     2292.5 secs

     Self-consistent Calculation

     iteration #  1     ecut=    25.00 Ry     beta= 0.70
     Davidson diagonalization with overlap
     ethr =  1.00E-06,  avg # of iterations = 12.4

     total cpu time spent up to now is     2482.8 secs

     total energy              =   -1215.41458980 Ry
     estimated scf accuracy    <       8.09384364 Ry

     iteration #  2     ecut=    25.00 Ry     beta= 0.70
     Davidson diagonalization with overlap
     ethr =  3.43E-03,  avg # of iterations =  6.6

     total cpu time spent up to now is     2605.9 secs

     total energy              =   -1214.98391128 Ry
     estimated scf accuracy    <     107.94696930 Ry

     iteration #  3     ecut=    25.00 Ry     beta= 0.70
     Davidson diagonalization with overlap
     ethr =  3.43E-03,  avg # of iterations =  8.0

     total cpu time spent up to now is     2707.3 secs

     total energy              =   -1222.44383805 Ry
     estimated scf accuracy    <       8.04543517 Ry

     iteration #  4     ecut=    25.00 Ry     beta= 0.70
     Davidson diagonalization with overlap
     ethr =  3.41E-03,  avg # of iterations =  2.0

     total cpu time spent up to now is     2766.5 secs

     total energy              =   -1222.39525923 Ry
     estimated scf accuracy    <       3.66936810 Ry

     iteration #  5     ecut=    25.00 Ry     beta= 0.70
     Davidson diagonalization with overlap
     ethr =  1.55E-03,  avg # of iterations =  1.0

     total cpu time spent up to now is     2821.6 secs

     total energy              =   -1222.41392804 Ry
     estimated scf accuracy    <       8.90654307 Ry

     iteration #  6     ecut=    25.00 Ry     beta= 0.70
     Davidson diagonalization with overlap
     ethr =  1.55E-03,  avg # of iterations =  1.0

     total cpu time spent up to now is     2874.4 secs

     total energy              =   -1222.24870204 Ry
     estimated scf accuracy    <       5.91520404 Ry

     iteration #  7     ecut=    25.00 Ry     beta= 0.70
     Davidson diagonalization with overlap
     ethr =  1.55E-03,  avg # of iterations =  1.0

     total cpu time spent up to now is     2925.9 secs

     total energy              =   -1222.13519219 Ry
     estimated scf accuracy    <       2.13227793 Ry

     iteration #  8     ecut=    25.00 Ry     beta= 0.70
     Davidson diagonalization with overlap
     ethr =  9.04E-04,  avg # of iterations =  1.0

     total cpu time spent up to now is     2977.7 secs

     total energy              =   -1222.16942310 Ry
     estimated scf accuracy    <       0.99105277 Ry

     iteration #  9     ecut=    25.00 Ry     beta= 0.70
     Davidson diagonalization with overlap
     ethr =  4.20E-04,  avg # of iterations =  1.5

     total cpu time spent up to now is     3034.6 secs

     total energy              =   -1222.15458634 Ry
     estimated scf accuracy    <       0.97615417 Ry

     iteration # 10     ecut=    25.00 Ry     beta= 0.70
     Davidson diagonalization with overlap
     ethr =  4.14E-04,  avg # of iterations =  1.4

     negative rho (up, down):  1.963E-04 0.000E+00

     total cpu time spent up to now is     3089.8 secs

     total energy              =   -1221.64116102 Ry
     estimated scf accuracy    <       1.24352235 Ry

     iteration # 11     ecut=    25.00 Ry     beta= 0.70
     Davidson diagonalization with overlap
     ethr =  4.14E-04,  avg # of iterations =  9.8

     total cpu time spent up to now is     3161.8 secs

     total energy              =   -1221.41407432 Ry
     estimated scf accuracy    <      15.57120080 Ry

     iteration # 12     ecut=    25.00 Ry     beta= 0.70
     Davidson diagonalization with overlap
     ethr =  4.14E-04,  avg # of iterations =  2.0

     total cpu time spent up to now is     3223.0 secs

     total energy              =   -1222.03482482 Ry
     estimated scf accuracy    <       0.30406904 Ry

     iteration # 13     ecut=    25.00 Ry     beta= 0.70
     Davidson diagonalization with overlap
     ethr =  1.29E-04,  avg # of iterations =  3.4

     total cpu time spent up to now is     3281.4 secs

     total energy              =   -1222.03723201 Ry
     estimated scf accuracy    <       0.53537190 Ry

     iteration # 14     ecut=    25.00 Ry     beta= 0.70
     Davidson diagonalization with overlap
     ethr =  1.29E-04,  avg # of iterations =  1.1

     total cpu time spent up to now is     3333.3 secs

     total energy              =   -1222.02934589 Ry
     estimated scf accuracy    <       0.48748799 Ry

     iteration # 15     ecut=    25.00 Ry     beta= 0.70
     Davidson diagonalization with overlap
     ethr =  1.29E-04,  avg # of iterations =  2.5

     total cpu time spent up to now is     3390.2 secs

     total energy              =   -1222.01630000 Ry
     estimated scf accuracy    <       0.33342244 Ry

     iteration # 16     ecut=    25.00 Ry     beta= 0.70
     Davidson diagonalization with overlap
     ethr =  1.29E-04,  avg # of iterations =  1.0

     total cpu time spent up to now is     3454.4 secs

     total energy              =   -1222.01662299 Ry
     estimated scf accuracy    <       0.13578270 Ry

     iteration # 17     ecut=    25.00 Ry     beta= 0.70
     Davidson diagonalization with overlap
     ethr =  5.75E-05,  avg # of iterations =  1.4

     total cpu time spent up to now is     3512.8 secs

     total energy              =   -1222.00446676 Ry
     estimated scf accuracy    <       0.26740403 Ry

     iteration # 18     ecut=    25.00 Ry     beta= 0.70
     Davidson diagonalization with overlap
     ethr =  5.75E-05,  avg # of iterations =  2.0

     total cpu time spent up to now is     3574.6 secs

     total energy              =   -1222.02841668 Ry
     estimated scf accuracy    <       1.12243770 Ry

     iteration # 19     ecut=    25.00 Ry     beta= 0.70
     Davidson diagonalization with overlap
     ethr =  5.75E-05,  avg # of iterations =  1.0

     total cpu time spent up to now is     3626.6 secs

     total energy              =   -1221.98473822 Ry
     estimated scf accuracy    <       0.44610763 Ry

     iteration # 20     ecut=    25.00 Ry     beta= 0.70
     Davidson diagonalization with overlap
     ethr =  5.75E-05,  avg # of iterations =  2.0

     total cpu time spent up to now is     3684.4 secs

     total energy              =   -1221.98884671 Ry
     estimated scf accuracy    <       0.63725630 Ry

     iteration # 21     ecut=    25.00 Ry     beta= 0.70
     Davidson diagonalization with overlap
     ethr =  5.75E-05,  avg # of iterations =  2.0

     total cpu time spent up to now is     3740.1 secs

     total energy              =   -1222.00583913 Ry
     estimated scf accuracy    <       0.02977066 Ry

     iteration # 22     ecut=    25.00 Ry     beta= 0.70
     Davidson diagonalization with overlap
     ethr =  1.26E-05,  avg # of iterations =  7.2

     total cpu time spent up to now is     3804.8 secs

     total energy              =   -1222.00874164 Ry
     estimated scf accuracy    <       0.13835968 Ry

     iteration # 23     ecut=    25.00 Ry     beta= 0.70
     Davidson diagonalization with overlap
     ethr =  1.26E-05,  avg # of iterations =  1.0

     total cpu time spent up to now is     3855.4 secs

     total energy              =   -1222.00987680 Ry
     estimated scf accuracy    <       0.01791243 Ry

     iteration # 24     ecut=    25.00 Ry     beta= 0.70
     Davidson diagonalization with overlap
     ethr =  7.59E-06,  avg # of iterations =  5.6

     total cpu time spent up to now is     3912.6 secs

     total energy              =   -1222.00995107 Ry
     estimated scf accuracy    <       0.01848803 Ry

     iteration # 25     ecut=    25.00 Ry     beta= 0.70
     Davidson diagonalization with overlap
     ethr =  7.59E-06,  avg # of iterations =  1.0

     total cpu time spent up to now is     3962.7 secs

     End of self-consistent calculation

          k = 0.0000 0.0000 0.0000 ( 10821 PWs)   bands (ev):

   -26.4613 -26.3566 -26.3349 -26.2176 -25.8542 -25.8282 -22.4113 -22.4013
   -21.7493 -21.4062 -21.1200 -20.9813 -20.9209 -20.7417 -20.2815 -20.2013
   -20.1717 -19.8478 -19.7224 -19.6978 -19.6822 -19.5984 -19.5680 -19.3547
   -19.3330 -19.2700 -18.6773 -18.4495 -18.1217 -17.8114 -11.1971 -11.1255
   -11.1054 -11.0849 -11.0581 -10.9605 -10.9560 -10.9550 -10.9438 -10.9354
   -10.8581 -10.8339 -10.5413 -10.5380 -10.5200 -10.5014 -10.4792 -10.4700
    -8.8251  -8.6818  -8.2024  -7.5373  -7.4733  -7.1909  -6.8473  -6.5368
    -6.0626  -5.7825  -5.7432  -5.0478  -4.8463  -4.8195  -4.3902  -4.0760
    -4.0439  -3.9176  -3.8869  -3.7236  -3.6655  -3.6281  -3.5046  -3.4813
    -3.3112  -3.2410  -2.8706  -2.7974  -2.7839  -2.7212  -2.5065  -2.2825
    -2.1514  -2.0740  -1.6850  -1.5603  -1.5303  -1.4341  -1.3205  -1.2944
    -1.2011  -1.1222  -1.0434  -0.9846  -0.8924  -0.8573  -0.7893  -0.7205
    -0.6702  -0.5528  -0.4620  -0.3530  -0.2383  -0.2370   0.0289   0.0494
     0.0897   0.1594   0.1928   0.2281   0.2522   0.2747   0.3508   0.4069
     0.4340   0.5464   0.5783   0.6001   0.6796   0.6882   0.7475   0.8932
     0.8990   1.1522   3.7453   3.7859   5.1323   6.4188   6.5232   7.0857
     7.2001   7.3619   7.4250   7.6818   7.7896   8.1799   8.2196   8.4637
     8.5581   8.6270   8.7085   8.8318   9.1170   9.2679

          k = 0.0000 0.0000-0.7630 ( 10796 PWs)   bands (ev):

   -26.4548 -26.3444 -26.3303 -26.2116 -25.8427 -25.8292 -22.4234 -22.4031
   -21.7478 -21.4065 -21.1212 -20.9773 -20.9163 -20.7431 -20.2781 -20.1867
   -20.1707 -19.8464 -19.7209 -19.6945 -19.6820 -19.5956 -19.5657 -19.3520
   -19.3311 -19.2677 -18.6753 -18.4474 -18.1216 -17.8086 -11.1996 -11.1260
   -11.1042 -11.0869 -11.0584 -10.9711 -10.9695 -10.9612 -10.9454 -10.9286
   -10.8565 -10.8333 -10.5293 -10.5240 -10.5152 -10.5009 -10.4797 -10.4710
    -8.8234  -8.6566  -8.2061  -7.5376  -7.4645  -7.2077  -6.8527  -6.5299
    -6.0691  -5.7690  -5.7218  -5.0708  -4.8251  -4.7699  -4.3964  -4.0724
    -4.0372  -3.9450  -3.8622  -3.7174  -3.6745  -3.6413  -3.4892  -3.4674
    -3.3165  -3.2481  -2.8984  -2.8331  -2.8309  -2.7047  -2.5230  -2.2792
    -2.1135  -1.9599  -1.6890  -1.6197  -1.5055  -1.3927  -1.3288  -1.2947
    -1.2019  -1.1115  -1.0357  -0.9581  -0.8802  -0.8265  -0.7923  -0.7341
    -0.6277  -0.5283  -0.4161  -0.3383  -0.2198  -0.2159  -0.0151  -0.0046
     0.0770   0.1180   0.2357   0.2907   0.3155   0.3319   0.4195   0.4615
     0.4834   0.5034   0.6150   0.6636   0.6787   0.7431   0.7462   0.8952
     0.8952   1.1186   3.7833   3.8120   5.7215   6.4378   6.7032   6.8158
     7.2053   7.3766   7.4520   7.8725   8.0404   8.0678   8.0786   8.1991
     8.3063   8.3984   8.4316   8.4690   8.6730   8.8479

          k = 0.0000-0.5043 0.0000 ( 10800 PWs)   bands (ev):

   -26.4545 -26.3402 -26.3368 -26.2125 -25.8361 -25.8361 -22.4061 -22.4028
   -21.7404 -21.4179 -21.0871 -21.0074 -20.9096 -20.7456 -20.2674 -20.2009
   -20.1818 -19.8589 -19.7076 -19.6940 -19.6812 -19.6033 -19.5678 -19.3553
   -19.3322 -19.2691 -18.6769 -18.4500 -18.1197 -17.8102 -11.1973 -11.1252
   -11.1098 -11.0782 -11.0591 -10.9577 -10.9561 -10.9508 -10.9498 -10.9381
   -10.8585 -10.8338 -10.5401 -10.5388 -10.5114 -10.5098 -10.4751 -10.4747
    -8.7566  -8.7516  -8.1909  -7.5528  -7.3334  -7.3177  -6.8197  -6.4765
    -6.0628  -5.8771  -5.6749  -5.0338  -4.8963  -4.7721  -4.3777  -4.0956
    -4.0090  -3.9610  -3.8640  -3.7442  -3.6616  -3.5491  -3.5381  -3.3725
    -3.3249  -3.2716  -2.8907  -2.8672  -2.7404  -2.6994  -2.4126  -2.3166
    -2.1311  -2.0868  -1.6603  -1.6050  -1.4797  -1.3544  -1.2727  -1.2620
    -1.2465  -1.1601  -0.9889  -0.9870  -0.8801  -0.8629  -0.8156  -0.6808
    -0.6724  -0.5396  -0.4177  -0.3986  -0.2490  -0.2287   0.0211   0.0488
     0.1307   0.1331   0.1968   0.2388   0.2497   0.3221   0.3353   0.3768
     0.5010   0.5279   0.6075   0.6141   0.6468   0.6922   0.7406   0.9038
     0.9688   1.1040   3.7527   3.7918   5.4764   5.7229   6.9379   6.9651
     7.2545   7.4023   7.4896   7.7113   7.8092   7.9689   8.3277   8.5375
     8.5517   8.5521   8.7874   8.8377   9.0609   9.1413

          k = 0.0000-0.5043-0.7630 ( 10804 PWs)   bands (ev):

   -26.4564 -26.3404 -26.3391 -26.2144 -25.8383 -25.8382 -22.4149 -22.4120
   -21.7433 -21.4197 -21.0856 -21.0076 -20.9110 -20.7484 -20.2688 -20.1926
   -20.1726 -19.8591 -19.7042 -19.6955 -19.6821 -19.6014 -19.5665 -19.3561
   -19.3311 -19.2685 -18.6814 -18.4470 -18.1236 -17.8076 -11.1997 -11.1258
   -11.1101 -11.0787 -11.0597 -10.9763 -10.9652 -10.9550 -10.9512 -10.9296
   -10.8568 -10.8332 -10.5274 -10.5244 -10.5104 -10.5070 -10.4758 -10.4755
    -8.7524  -8.7499  -8.1992  -7.5671  -7.3493  -7.3258  -6.8362  -6.4990
    -6.0843  -5.8753  -5.6714  -5.0662  -4.8602  -4.7393  -4.3898  -4.0790
    -4.0183  -4.0004  -3.8707  -3.7264  -3.6395  -3.5825  -3.5365  -3.4099
    -3.3444  -3.2612  -2.8782  -2.8736  -2.8234  -2.7648  -2.4253  -2.3126
    -2.0679  -2.0328  -1.6900  -1.6341  -1.4609  -1.3889  -1.3460  -1.2776
    -1.2737  -1.1276  -0.9724  -0.9720  -0.8882  -0.8585  -0.8243  -0.6948
    -0.6483  -0.5315  -0.4005  -0.3796  -0.2418  -0.2382  -0.0306  -0.0075
     0.1466   0.1544   0.2348   0.2734   0.2872   0.2984   0.3949   0.3987
     0.5134   0.5387   0.6585   0.6772   0.7079   0.7185   0.7492   0.8386
     0.9539   1.0644   3.7828   3.8105   6.0277   6.2809   6.6939   6.8331
     7.1895   7.2248   7.5496   7.5613   7.9159   7.9758   8.1860   8.2779
     8.2828   8.3386   8.5413   8.7230   8.9080   9.0183

          k =-0.5000 0.0000 0.0000 ( 10836 PWs)   bands (ev):

   -26.4638 -26.3482 -26.3481 -26.2219 -25.8454 -25.8454 -22.4083 -22.4062
   -21.7435 -21.4209 -21.0871 -21.0145 -20.9055 -20.7519 -20.2769 -20.1950
   -20.1806 -19.8577 -19.7091 -19.6939 -19.6912 -19.6037 -19.5672 -19.3613
   -19.3325 -19.2701 -18.6780 -18.4517 -18.1241 -17.8116 -11.1977 -11.1251
   -11.1096 -11.0786 -11.0595 -10.9578 -10.9564 -10.9521 -10.9492 -10.9369
   -10.8591 -10.8339 -10.5410 -10.5386 -10.5137 -10.5082 -10.4756 -10.4744
    -8.7686  -8.7631  -8.1901  -7.5651  -7.3531  -7.3323  -6.8307  -6.4959
    -6.0707  -5.8393  -5.7225  -5.0269  -4.8508  -4.8143  -4.3988  -4.1388
    -4.0320  -3.9938  -3.8476  -3.7198  -3.6454  -3.5945  -3.4886  -3.3910
    -3.3437  -3.3363  -2.8525  -2.8222  -2.7778  -2.7744  -2.4771  -2.3346
    -2.1605  -2.0931  -1.6797  -1.6147  -1.4117  -1.3794  -1.2932  -1.2714
    -1.2502  -1.2170  -1.0370  -0.9731  -0.8915  -0.8811  -0.8093  -0.7146
    -0.6808  -0.5736  -0.4144  -0.3428  -0.2506  -0.2112  -0.0815   0.0244
     0.1003   0.2176   0.2251   0.2409   0.2494   0.2662   0.3155   0.3298
     0.4371   0.5684   0.5886   0.6379   0.6659   0.7031   0.7147   0.9078
     0.9283   1.0990   3.7425   3.7673   5.6551   5.7006   6.7639   6.9607
     7.0142   7.1117   7.6045   7.6094   8.1047   8.2199   8.3664   8.5068
     8.5445   8.6205   8.8611   8.9579   8.9814   9.0377

          k =-0.5000 0.0000-0.7630 ( 10820 PWs)   bands (ev):

   -26.4602 -26.3440 -26.3438 -26.2182 -25.8423 -25.8423 -22.4154 -22.4136
   -21.7452 -21.4222 -21.0845 -21.0107 -20.9063 -20.7513 -20.2752 -20.1877
   -20.1723 -19.8585 -19.7074 -19.6928 -19.6888 -19.6044 -19.5657 -19.3616
   -19.3296 -19.2666 -18.6790 -18.4484 -18.1236 -17.8095 -11.2004 -11.1253
   -11.1096 -11.0791 -11.0600 -10.9767 -10.9661 -10.9537 -10.9514 -10.9293
   -10.8571 -10.8332 -10.5274 -10.5245 -10.5117 -10.5062 -10.4762 -10.4753
    -8.7629  -8.7596  -8.1979  -7.5773  -7.3611  -7.3310  -6.8351  -6.5116
    -6.0879  -5.8266  -5.7128  -5.0510  -4.8307  -4.7753  -4.4204  -4.1303
    -4.0192  -4.0155  -3.8361  -3.7077  -3.6459  -3.6203  -3.4886  -3.3954
    -3.3610  -3.3127  -2.8875  -2.8560  -2.7950  -2.7763  -2.4720  -2.3428
    -2.0753  -2.0280  -1.6802  -1.6342  -1.4795  -1.3624  -1.3083  -1.2760
    -1.2576  -1.1911  -0.9985  -0.9760  -0.9070  -0.8508  -0.8018  -0.7013
    -0.6690  -0.5692  -0.4045  -0.3394  -0.2594  -0.2215  -0.1006   0.0219
     0.1211   0.1939   0.2035   0.2397   0.2439   0.3213   0.3843   0.3897
     0.5140   0.5861   0.6243   0.6631   0.7118   0.7146   0.7443   0.8786
     0.8962   1.0857   3.7817   3.7977   6.1631   6.1938   6.7485   6.7761
     7.1687   7.2199   7.2517   7.4842   7.9332   7.9332   8.3495   8.3531
     8.4229   8.4300   8.5789   8.7289   8.9212   8.9215

          k =-0.5000-0.5043 0.0000 ( 10844 PWs)   bands (ev):

   -26.4651 -26.3496 -26.3491 -26.2232 -25.8470 -25.8468 -22.4191 -22.3922
   -21.7497 -21.3990 -21.1176 -21.0032 -20.9127 -20.7371 -20.2773 -20.2092
   -20.1802 -19.8516 -19.7199 -19.6966 -19.6843 -19.6023 -19.5686 -19.3604
   -19.3327 -19.2707 -18.6791 -18.4514 -18.1223 -17.8130 -11.1977 -11.1267
   -11.1055 -11.0845 -11.0580 -10.9602 -10.9569 -10.9555 -10.9417 -10.9370
   -10.8584 -10.8340 -10.5400 -10.5394 -10.5174 -10.5066 -10.4747 -10.4731
    -8.8059  -8.7266  -8.2175  -7.5775  -7.4026  -7.2192  -6.8843  -6.4963
    -6.1046  -5.7776  -5.7730  -5.0205  -4.9187  -4.7763  -4.4184  -4.1224
    -4.0268  -3.9407  -3.8642  -3.8060  -3.6123  -3.5734  -3.5467  -3.3850
[...]
    -2.1903  -2.1456  -1.7565  -1.7036  -1.4856  -1.4563  -1.3299  -1.3158
    -1.1943  -1.1847  -1.1094  -0.9917  -0.9325  -0.8610  -0.8402  -0.7723
    -0.7597  -0.6549  -0.4809  -0.4681  -0.3216  -0.3150  -0.1981  -0.0406
     0.0544   0.0750   0.1515   0.1959   0.2274   0.2374   0.2917   0.3421
     0.3722   0.5404   0.5618   0.6073   0.6306   0.6401   0.6415   0.8379
     0.8720   1.0244   3.8786   3.9303   5.6460   5.7261   6.8331   7.0074
     7.0971   7.2303   7.6121   7.7193   8.1399   8.2701   8.3666   8.4082
     8.6094   8.6761   8.8419   8.9764   9.0767   9.1053

          k =-0.5000 0.0000-0.7630 ( 10820 PWs)   bands (ev):

   -26.2713 -26.2270 -26.2214 -26.0031 -26.0028 -25.9454 -22.4520 -22.4504
   -21.8053 -21.3029 -21.1286 -20.9804 -20.9411 -20.7920 -20.4688 -20.2485
   -20.2285 -19.9376 -19.8192 -19.7698 -19.7683 -19.7246 -19.4983 -19.3794
   -19.3465 -19.0436 -18.7399 -18.5080 -18.1741 -17.8571 -11.0100 -10.9700
   -10.9649 -10.9427 -10.8782 -10.8704 -10.8606 -10.8543 -10.8435 -10.7105
   -10.6865 -10.6861 -10.6600 -10.6504 -10.6368 -10.6339 -10.6071 -10.5705
    -8.8145  -8.7844  -8.3706  -7.5155  -7.3934  -7.3694  -6.8802  -6.5712
    -6.1894  -5.8772  -5.7578  -5.1488  -4.8500  -4.8074  -4.5090  -4.0804
    -4.0149  -3.9938  -3.8855  -3.7981  -3.6688  -3.6630  -3.5251  -3.4629
    -3.3667  -3.3085  -2.9220  -2.9167  -2.8456  -2.8049  -2.5285  -2.3830
    -2.1075  -2.0616  -1.7448  -1.7043  -1.5185  -1.5176  -1.3231  -1.3022
    -1.1935  -1.1655  -1.0640  -0.9795  -0.9208  -0.8683  -0.8648  -0.7855
    -0.7140  -0.6463  -0.4921  -0.4635  -0.3199  -0.3182  -0.2224  -0.0183
     0.0656   0.0867   0.1538   0.1814   0.2065   0.2478   0.3003   0.4330
     0.4526   0.5345   0.6017   0.6252   0.6606   0.6671   0.6914   0.8141
     0.8444   1.0158   3.9132   3.9362   6.1482   6.2477   6.7295   6.8833
     7.1997   7.3774   7.4561   7.6188   7.8193   7.9884   8.2521   8.3720
     8.4414   8.4985   8.5818   8.6659   8.7271   8.8689

          k =-0.5000-0.5043 0.0000 ( 10844 PWs)   bands (ev):

   -26.2739 -26.2306 -26.2300 -26.0078 -26.0076 -25.9501 -22.4535 -22.4301
   -21.8061 -21.2836 -21.1526 -20.9645 -20.9627 -20.7886 -20.4701 -20.2628
   -20.2372 -19.9371 -19.8130 -19.7732 -19.7731 -19.7278 -19.5012 -19.3769
   -19.3493 -19.0453 -18.7405 -18.5110 -18.1734 -17.8606 -11.0082 -10.9668
   -10.9649 -10.9442 -10.8797 -10.8661 -10.8519 -10.8485 -10.8345 -10.7204
   -10.6971 -10.6945 -10.6580 -10.6539 -10.6423 -10.6302 -10.6008 -10.5735
    -8.8515  -8.7567  -8.3884  -7.5409  -7.4489  -7.2260  -6.9144  -6.5689
    -6.2069  -5.8192  -5.8182  -5.1242  -4.9376  -4.8168  -4.5035  -4.0305
    -4.0027  -3.9556  -3.8967  -3.8817  -3.6679  -3.5959  -3.5876  -3.4193
    -3.4057  -3.2288  -2.9701  -2.8788  -2.7951  -2.7628  -2.5550  -2.3684
    -2.2278  -2.0940  -1.7445  -1.6443  -1.6200  -1.4386  -1.3130  -1.2468
    -1.1569  -1.1480  -1.1028  -1.0139  -0.9815  -0.8951  -0.8130  -0.8127
    -0.7567  -0.6066  -0.5155  -0.4458  -0.4204  -0.3132  -0.2210  -0.0263
     0.0435   0.0711   0.1197   0.1938   0.2357   0.2691   0.2724   0.3140
     0.4613   0.5288   0.5598   0.6076   0.6156   0.6344   0.6667   0.8278
     0.8663   1.0161   3.8601   3.9234   5.8234   5.8798   6.4339   6.4383
     7.4809   7.6073   7.6197   7.8712   8.1489   8.1934   8.2032   8.4472
     8.5042   8.8153   8.8364   8.9340   8.9586   9.1147

          k =-0.5000-0.5043-0.7630 ( 10768 PWs)   bands (ev):

   -26.2559 -26.2139 -26.2101 -25.9898 -25.9897 -25.9318 -22.4567 -22.4365
   -21.8034 -21.2818 -21.1496 -20.9645 -20.9550 -20.7859 -20.4676 -20.2456
   -20.2257 -19.9356 -19.8079 -19.7720 -19.7666 -19.7203 -19.4967 -19.3723
   -19.3458 -19.0392 -18.7371 -18.5065 -18.1708 -17.8548 -11.0101 -10.9692
   -10.9658 -10.9446 -10.8763 -10.8716 -10.8606 -10.8585 -10.8362 -10.7134
   -10.6867 -10.6855 -10.6569 -10.6503 -10.6432 -10.6305 -10.6032 -10.5703
    -8.8331  -8.7248  -8.3747  -7.5463  -7.4349  -7.2405  -6.8840  -6.5739
    -6.1803  -5.8040  -5.7929  -5.1390  -4.8735  -4.7516  -4.5041  -4.0023
    -3.9951  -3.9478  -3.9030  -3.8497  -3.6775  -3.5884  -3.5602  -3.4094
    -3.4010  -3.2088  -2.9270  -2.9051  -2.8895  -2.7781  -2.5369  -2.3270
    -2.1122  -2.0151  -1.7140  -1.7114  -1.5556  -1.4742  -1.3747  -1.2750
    -1.1363  -1.1210  -1.0500  -0.9812  -0.9087  -0.8512  -0.8258  -0.7676
    -0.7268  -0.5391  -0.4602  -0.4481  -0.3750  -0.2755  -0.1553  -0.0092
     0.0737   0.0930   0.1434   0.1862   0.2711   0.2985   0.3754   0.4409
     0.4409   0.5662   0.5693   0.6431   0.6971   0.7025   0.7132   0.8255
     0.8863   1.0489   3.9175   3.9591   6.3326   6.4328   6.5730   6.8947
     7.1880   7.2958   7.4230   7.4922   7.5564   7.9121   8.1885   8.4335
     8.4744   8.6187   8.7504   8.7751   8.8654   9.0341

     the Fermi energy is     0.7152 ev

!    total energy              =   -1222.03757959 Ry
     estimated scf accuracy    <       0.00406520 Ry
     smearing contrib. (-TS)   =      -0.02478755 Ry
     internal energy E=F+TS    =   -1222.01279204 Ry

     The total energy is F=E-TS. E is the sum of the following terms:
     one-electron contribution =    -786.30565461 Ry
     hartree contribution      =     478.83849352 Ry
     xc contribution           =    -300.90607301 Ry
     ewald contribution        =    -613.63955794 Ry

     convergence has been achieved in  14 iterations

     Forces acting on atoms (cartesian axes, Ry/au):

     atom    1 type  1   force =     0.00439180   -0.00020616   -0.00213684
     atom    2 type  1   force =    -0.00439180    0.00020616   -0.00213684
     atom    3 type  2   force =     0.00322175    0.00053315    0.00311159
     atom    4 type  2   force =    -0.00322175   -0.00053315    0.00311159
     atom    5 type  4   force =     0.00076063   -0.00283162    0.00135674
     atom    6 type  4   force =    -0.00076063    0.00283162    0.00135674
     atom    7 type  3   force =    -0.00356114   -0.00856739   -0.00835695
     atom    8 type  3   force =     0.00519750   -0.00219393   -0.00309522
     atom    9 type  3   force =    -0.00519750    0.00219393   -0.00309522
     atom   10 type  3   force =     0.00356114    0.00856739   -0.00835695
     atom   11 type  3   force =    -0.00728624   -0.00038606   -0.00016712
     atom   12 type  3   force =     0.00236079   -0.00208945    0.00029211
     atom   13 type  3   force =    -0.00236079    0.00208945    0.00029211
     atom   14 type  3   force =     0.00728624    0.00038606   -0.00016712
     atom   15 type  1   force =     0.00000000    0.00000000    0.00225687
     atom   16 type  1   force =     0.00000000    0.00000000    0.00444989
     atom   17 type  2   force =     0.00000000    0.00000000    0.01516169
     atom   18 type  2   force =     0.00000000    0.00000000   -0.01104363
     atom   19 type  4   force =    -0.05117823   -0.07147716   -0.00618042
     atom   20 type  4   force =     0.05405946    0.07238044   -0.01088629
     atom   21 type  4   force =    -0.05405946   -0.07238044   -0.01088629
     atom   22 type  4   force =     0.05117823    0.07147716   -0.00618042
     atom   23 type  3   force =    -0.00101794   -0.08005734    0.06350332
     atom   24 type  3   force =    -0.01074001    0.07860115    0.06201363
     atom   25 type  3   force =     0.01074001   -0.07860115    0.06201363
     atom   26 type  3   force =     0.00101794    0.08005734    0.06350332
     atom   27 type  3   force =     0.00055555    0.01497015    0.00015917
     atom   28 type  3   force =     0.00041991   -0.04161195    0.00669624
     atom   29 type  3   force =    -0.00041991    0.04161195    0.00669624
     atom   30 type  3   force =    -0.00055555   -0.01497015    0.00015917
     atom   31 type  1   force =     0.00018380   -0.00132472   -0.00079911
     atom   32 type  1   force =    -0.00018380    0.00132472   -0.00079911
     atom   33 type  2   force =     0.02958989    0.00548312   -0.01138528
     atom   34 type  2   force =    -0.02958989   -0.00548312   -0.01138528
     atom   35 type  4   force =     0.01255907   -0.05129003   -0.00506854
     atom   36 type  4   force =    -0.01255907    0.05129003   -0.00506854
     atom   37 type  3   force =    -0.04128859   -0.03067659   -0.00712276
     atom   38 type  3   force =     0.04369644   -0.07168945    0.00078907
     atom   39 type  3   force =    -0.04369644    0.07168945    0.00078907
     atom   40 type  3   force =     0.04128859    0.03067659   -0.00712276
     atom   41 type  3   force =    -0.02361323   -0.08666280   -0.04500594
     atom   42 type  3   force =     0.02429860    0.05740384   -0.04312981
     atom   43 type  3   force =    -0.02429860   -0.05740384   -0.04312981
     atom   44 type  3   force =     0.02361323    0.08666280   -0.04500594

     Total force =     0.031738     Total SCF correction =     0.065089
     SCF correction compared to forces is large: reduce conv_thr to get better values
     Energy error            =      1.1E-03
     Gradient error          =      1.5E-02

     number of scf cycles    =  29
     number of bfgs steps    =  14

     energy   old            =   -1222.0386671750 Ry
     energy   new            =   -1222.0375795908 Ry

     CASE: energy  _new > energy  _old

     new trust radius        =       0.0098572129 bohr
     new conv_thr            =       0.0065606983 Ry


ATOMIC_POSITIONS (angstrom)
K1+           7.9531654487        2.4650079612        8.0556950831
K1+           2.5768345513        7.9749920388        8.0556950831
P5+           2.6457537374        2.5602119616        7.9962427561
P5+           7.8842462626        7.8797880384        7.9962427561
H1+           1.9836404896        4.8348436569        7.1543784425
H1+           8.5463595104        5.6051563431        7.1543784425
O2-           6.3877863107        0.5569510760        7.2357398526
O2-           9.2982551849        4.7932794470        7.1873239874
O2-           1.2317448151        5.6467205530        7.1873239874
O2-           4.1422136893        9.8830489240        7.2357398526
O2-           1.9407119416        1.4845399710        7.1519729870
O2-           3.0560827804        3.8546491219        7.1901307319
O2-           7.4739172196        6.5853508781        7.1901307319
O2-           8.5892880584        8.9554600290        7.1519729870
K1+           0.0000000000        0.0000000000        6.1098232572
K1+           5.2650000000        5.2200000000        6.0800899038
P5+           5.2650000000        0.0000000000        6.2782390108
P5+           0.0000000000        5.2200000000        6.2179673165
H1+           5.9178600000        2.2185000000        5.3676060000    0   0   0
H1+           9.8771400000        3.0015000000        5.3676060000    0   0   0
H1+           0.6528600000        7.4385000000        5.3676060000    0   0   0
H1+           4.6121400000        8.2215000000        5.3676060000    0   0   0
O2-           9.1189800000        2.2498200000        5.3503560000    0   0   0
O2-           6.6760200000        2.9701800000        5.3503560000    0   0   0
O2-           3.8539800000        7.4698200000        5.3503560000    0   0   0
O2-           1.4110200000        8.1901800000        5.3503560000    0   0   0
O2-           4.9017150000        1.2110400000        5.3193060000    0   0   0
O2-           0.3632850000        4.0089600000        5.3193060000    0   0   0
O2-          10.1667150000        6.4310400000        5.3193060000    0   0   0
O2-           5.6282850000        9.2289600000        5.3193060000    0   0   0
K1+           2.6325000000        2.6100000000        4.5292560000    0   0   0
K1+           7.8975000000        7.8300000000        4.5292560000    0   0   0
P5+           7.8975000000        2.6100000000        4.4464560000    0   0   0
P5+           2.6325000000        7.8300000000        4.4464560000    0   0   0
H1+           7.2446400000        4.8285000000        3.6426060000    0   0   0
H1+           3.2853600000        5.6115000000        3.6426060000    0   0   0
O2-           1.2214800000        0.3601800000        3.6253560000    0   0   0
O2-           4.0435200000        4.8598200000        3.6253560000    0   0   0
O2-           6.4864800000        5.5801800000        3.6253560000    0   0   0
O2-           9.3085200000       10.0798200000        3.6253560000    0   0   0
O2-           7.5342150000        1.3989600000        3.5943060000    0   0   0
O2-           8.2607850000        3.8210400000        3.5943060000    0   0   0
O2-           2.2692150000        6.6189600000        3.5943060000    0   0   0
O2-           2.9957850000        9.0410400000        3.5943060000    0   0   0



     Writing output data file ./outdir/KDP.save/
     NEW-OLD atomic charge density approx. for the potential

     Check: negative core charge=   -0.000062

     total cpu time spent up to now is    79825.8 secs

     Self-consistent Calculation

     iteration #  1     ecut=    25.00 Ry     beta= 0.70
     Davidson diagonalization with overlap
     ethr =  1.00E-06,  avg # of iterations = 11.4

     total cpu time spent up to now is    79948.3 secs

     total energy              =   -1216.97228839 Ry
     estimated scf accuracy    <       6.08013052 Ry

     iteration #  2     ecut=    25.00 Ry     beta= 0.70
     Davidson diagonalization with overlap
     ethr =  2.58E-03,  avg # of iterations =  4.9

     total cpu time spent up to now is    80024.7 secs

     total energy              =   -1219.72425969 Ry
     estimated scf accuracy    <      74.46369003 Ry

     iteration #  3     ecut=    25.00 Ry     beta= 0.70
     Davidson diagonalization with overlap
     ethr =  2.58E-03,  avg # of iterations =  8.2

     total cpu time spent up to now is    80106.7 secs

     total energy              =   -1222.74136883 Ry
     estimated scf accuracy    <      12.40581242 Ry

     iteration #  4     ecut=    25.00 Ry     beta= 0.70
     Davidson diagonalization with overlap
     ethr =  2.58E-03,  avg # of iterations =  2.0

     total cpu time spent up to now is    80154.3 secs

     total energy              =   -1222.39166770 Ry
     estimated scf accuracy    <       7.08558143 Ry

     iteration #  5     ecut=    25.00 Ry     beta= 0.70
     Davidson diagonalization with overlap
     ethr =  2.58E-03,  avg # of iterations =  1.0

     total cpu time spent up to now is    80197.6 secs

     total energy              =   -1221.82733562 Ry
     estimated scf accuracy    <       6.54697697 Ry

     iteration #  6     ecut=    25.00 Ry     beta= 0.70
     Davidson diagonalization with overlap
     ethr =  2.58E-03,  avg # of iterations =  1.0

     total cpu time spent up to now is    80240.9 secs

     total energy              =   -1222.05071562 Ry
     estimated scf accuracy    <       3.14509988 Ry

     iteration #  7     ecut=    25.00 Ry     beta= 0.70
     Davidson diagonalization with overlap
     ethr =  1.33E-03,  avg # of iterations =  1.0

     total cpu time spent up to now is    80284.2 secs

     total energy              =   -1222.04281410 Ry
     estimated scf accuracy    <       0.86566716 Ry

     iteration #  8     ecut=    25.00 Ry     beta= 0.70
     Davidson diagonalization with overlap
     ethr =  3.67E-04,  avg # of iterations =  3.6

     total cpu time spent up to now is    80333.0 secs

     total energy              =   -1222.07783768 Ry
     estimated scf accuracy    <       0.87609207 Ry

     iteration #  9     ecut=    25.00 Ry     beta= 0.70
     Davidson diagonalization with overlap
     ethr =  3.67E-04,  avg # of iterations =  1.1

     total cpu time spent up to now is    80377.1 secs

     total energy              =   -1222.03576952 Ry
     estimated scf accuracy    <       2.27657140 Ry

     iteration # 10     ecut=    25.00 Ry     beta= 0.70
     Davidson diagonalization with overlap
     ethr =  3.67E-04,  avg # of iterations =  1.1

     negative rho (up, down):  2.476E-03 0.000E+00

     total cpu time spent up to now is    80422.2 secs

     total energy              =   -1221.96198882 Ry
     estimated scf accuracy    <       0.20637063 Ry

     iteration # 11     ecut=    25.00 Ry     beta= 0.70
     Davidson diagonalization with overlap
     c_bands:  1 eigenvalues not converged
     ethr =  8.74E-05,  avg # of iterations = 11.9

     total cpu time spent up to now is    80490.2 secs

     total energy              =   -1221.80688625 Ry
     estimated scf accuracy    <      10.82286853 Ry

     iteration # 12     ecut=    25.00 Ry     beta= 0.70
     Davidson diagonalization with overlap
     ethr =  8.74E-05,  avg # of iterations =  2.0

     total cpu time spent up to now is    80542.3 secs

     total energy              =   -1222.05666652 Ry
     estimated scf accuracy    <       0.43765817 Ry

     iteration # 13     ecut=    25.00 Ry     beta= 0.70
     Davidson diagonalization with overlap
     ethr =  8.74E-05,  avg # of iterations =  1.0

     total cpu time spent up to now is    80591.4 secs

     total energy              =   -1222.05590375 Ry
     estimated scf accuracy    <       0.27145364 Ry

     iteration # 14     ecut=    25.00 Ry     beta= 0.70
     Davidson diagonalization with overlap
     ethr =  8.74E-05,  avg # of iterations =  1.0

     total cpu time spent up to now is    80640.9 secs

     total energy              =   -1222.05298056 Ry
     estimated scf accuracy    <       0.24165535 Ry

     iteration # 15     ecut=    25.00 Ry     beta= 0.70
     Davidson diagonalization with overlap
     ethr =  8.74E-05,  avg # of iterations =  1.0

     total cpu time spent up to now is    80688.2 secs

     total energy              =   -1222.05324411 Ry
     estimated scf accuracy    <       0.24641299 Ry

     iteration # 16     ecut=    25.00 Ry     beta= 0.70
     Davidson diagonalization with overlap
     ethr =  8.74E-05,  avg # of iterations =  1.0

     total cpu time spent up to now is    80736.2 secs

     total energy              =   -1222.05479577 Ry
     estimated scf accuracy    <       0.22188103 Ry

     iteration # 17     ecut=    25.00 Ry     beta= 0.70
     Davidson diagonalization with overlap
     ethr =  8.74E-05,  avg # of iterations =  1.0

     total cpu time spent up to now is    80786.7 secs

     total energy              =   -1222.05356059 Ry
     estimated scf accuracy    <       0.31407019 Ry

     iteration # 18     ecut=    25.00 Ry     beta= 0.70
     Davidson diagonalization with overlap
     ethr =  8.74E-05,  avg # of iterations =  1.0

     total cpu time spent up to now is    80830.5 secs

     total energy              =   -1222.06814003 Ry
     estimated scf accuracy    <       0.23074376 Ry

     iteration # 19     ecut=    25.00 Ry     beta= 0.70
     Davidson diagonalization with overlap
     ethr =  8.74E-05,  avg # of iterations =  1.0

     total cpu time spent up to now is    80881.0 secs

     total energy              =   -1222.00052480 Ry
     estimated scf accuracy    <       1.01149610 Ry

     iteration # 20     ecut=    25.00 Ry     beta= 0.70
     Davidson diagonalization with overlap
     ethr =  8.74E-05,  avg # of iterations =  2.0

     total cpu time spent up to now is    80933.8 secs

     total energy              =   -1222.01483319 Ry
     estimated scf accuracy    <       0.74167622 Ry

     iteration # 21     ecut=    25.00 Ry     beta= 0.70
     Davidson diagonalization with overlap
     ethr =  8.74E-05,  avg # of iterations =  1.0

     total cpu time spent up to now is    80981.1 secs

     total energy              =   -1222.02725833 Ry
     estimated scf accuracy    <       0.42483055 Ry

     iteration # 22     ecut=    25.00 Ry     beta= 0.70
     Davidson diagonalization with overlap
     ethr =  8.74E-05,  avg # of iterations =  1.0

     total cpu time spent up to now is    81034.7 secs

     total energy              =   -1222.03876555 Ry
     estimated scf accuracy    <       0.03833631 Ry

     iteration # 23     ecut=    25.00 Ry     beta= 0.70
