
     Program PWSCF v.6.7MaX starts on  4Sep2023 at 21:40:40 

     This program is part of the open-source Quantum ESPRESSO suite
     for quantum simulation of materials; please cite
         "P. Giannozzi et al., J. Phys.:Condens. Matter 21 395502 (2009);
         "P. Giannozzi et al., J. Phys.:Condens. Matter 29 465901 (2017);
          URL http://www.quantum-espresso.org", 
     in publications or presentations arising from this work. More details at
     http://www.quantum-espresso.org/quote

     Parallel version (MPI), running on     1 processors

     MPI processes distributed on     1 nodes
     Waiting for input...
     Reading input from standard input

     Current dimensions of program PWSCF are:
     Max number of different atomic species (ntypx) = 10
     Max number of k-points (npk) =  40000
     Max angular momentum in pseudopotentials (lmaxx) =  3
     Message from routine read_pp_mesh:
     mesh size missing, using the one in header
     Message from routine read_pp_mesh:
     mesh size missing, using the one in header
     Message from routine read_pp_mesh:
     mesh size missing, using the one in header
     Message from routine read_pp_mesh:
     mesh size missing, using the one in header

     gamma-point specific algorithms are used

     Subspace diagonalization in iterative solution of the eigenvalue problem:
     a serial algorithm will be used


     G-vector sticks info
     --------------------
     sticks:   dense  smooth     PW     G-vecs:    dense   smooth      PW
     Sum        7033    3133    781               489365   145045   18167



     bravais-lattice index     =            8
     lattice parameter (alat)  =      19.8988  a.u.
     unit-cell volume          =    8586.0604 (a.u.)^3
     number of atoms/cell      =           44
     number of atomic types    =            4
     number of electrons       =       236.00
     number of Kohn-Sham states=          142
     kinetic-energy cutoff     =      25.0000  Ry
     charge density cutoff     =     225.0000  Ry
     scf convergence threshold =      1.0E-01
     mixing beta               =       0.7000
     number of iterations used =            8  plain     mixing
     Exchange-correlation= PBE
                           (   1   4   3   4   0   0   0)

     celldm(1)=  19.898816  celldm(2)=   0.991453  celldm(3)=   1.099107
     celldm(4)=   0.000000  celldm(5)=   0.000000  celldm(6)=   0.000000

     crystal axes: (cart. coord. in units of alat)
               a(1) = (   1.000000   0.000000   0.000000 )  
               a(2) = (   0.000000   0.991453   0.000000 )  
               a(3) = (   0.000000   0.000000   1.099107 )  

     reciprocal axes: (cart. coord. in units 2 pi/alat)
               b(1) = (  1.000000  0.000000  0.000000 )  
               b(2) = (  0.000000  1.008621  0.000000 )  
               b(3) = (  0.000000  0.000000  0.909829 )  


     PseudoPot. # 1 for K  read from file:
     /home/johnpaul/JP_QME/Dojo_Pseudo/nc-sr-05_pbe_stringent_upf/K.upf
     MD5 check sum: 0aa97b2c023445f040759afc9fdb6c80
     Pseudo is Norm-conserving + core correction, Zval =  9.0
     Generated using ONCVPSP code by D. R. Hamann
     Using radial grid of 2222 points,  6 beta functions with: 
                l(1) =   0
                l(2) =   0
                l(3) =   1
                l(4) =   1
                l(5) =   2
                l(6) =   2

     PseudoPot. # 2 for P  read from file:
     /home/johnpaul/JP_QME/Dojo_Pseudo/nc-sr-05_pbe_stringent_upf/P.upf
     MD5 check sum: e25a93595ed76be8dfbf715c9c2e8dc8
     Pseudo is Norm-conserving + core correction, Zval =  5.0
     Generated using ONCVPSP code by D. R. Hamann
     Using radial grid of 1298 points,  6 beta functions with: 
                l(1) =   0
                l(2) =   0
                l(3) =   1
                l(4) =   1
                l(5) =   2
                l(6) =   2

     PseudoPot. # 3 for O  read from file:
     /home/johnpaul/JP_QME/Dojo_Pseudo/nc-sr-05_pbe_stringent_upf/O.upf
     MD5 check sum: 9db02a5ece9d56b81b65a73f8163743d
     Pseudo is Norm-conserving + core correction, Zval =  6.0
     Generated using ONCVPSP code by D. R. Hamann
     Using radial grid of  936 points,  5 beta functions with: 
                l(1) =   0
                l(2) =   0
                l(3) =   1
                l(4) =   1
                l(5) =   2

     PseudoPot. # 4 for H  read from file:
     /home/johnpaul/JP_QME/Dojo_Pseudo/nc-sr-05_pbe_stringent_upf/H.upf
     MD5 check sum: e96aa7e3e4a958db16958554ea960e2a
     Pseudo is Norm-conserving, Zval =  1.0
     Generated using ONCVPSP code by D. R. Hamann
     Using radial grid of 1166 points,  3 beta functions with: 
                l(1) =   0
                l(2) =   0
                l(3) =   1

     atomic species   valence    mass     pseudopotential
        K1+            9.00    39.09830     K ( 1.00)
        P5+            5.00    30.97376     P ( 1.00)
        O2-            6.00    15.99940     O ( 1.00)
        H1+            1.00     1.00794     H ( 1.00)

      2 Sym. Ops. (no inversion) found



   Cartesian axes

     site n.     atom                  positions (alat units)
         1           K1+ tau(   1) = (   0.7500000   0.2478632   0.7577641  )
         2           K1+ tau(   2) = (   0.2500000   0.7435897   0.7577641  )
         3           P5+ tau(   3) = (   0.2500000   0.2478632   0.7499009  )
         4           P5+ tau(   4) = (   0.7500000   0.7435897   0.7499009  )
         5           H1+ tau(   5) = (   0.1880000   0.4585470   0.6735618  )
         6           H1+ tau(   6) = (   0.8120000   0.5329060   0.6735618  )
         7           O2- tau(   7) = (   0.6160000   0.0342051   0.6719236  )
         8           O2- tau(   8) = (   0.8840000   0.4615214   0.6719236  )
         9           O2- tau(   9) = (   0.1160000   0.5299316   0.6719236  )
        10           O2- tau(  10) = (   0.3840000   0.9572479   0.6719236  )
        11           O2- tau(  11) = (   0.2155000   0.1328547   0.6689749  )
        12           O2- tau(  12) = (   0.2845000   0.3628718   0.6689749  )
        13           O2- tau(  13) = (   0.7155000   0.6285812   0.6689749  )
        14           O2- tau(  14) = (   0.7845000   0.8585983   0.6689749  )
        15           K1+ tau(  15) = (   0.0000000   0.0000000   0.5939464  )
        16           K1+ tau(  16) = (   0.5000000   0.4957265   0.5939464  )
        17           P5+ tau(  17) = (   0.5000000   0.0000000   0.5860832  )
        18           P5+ tau(  18) = (   0.0000000   0.4957265   0.5860832  )
        19           H1+ tau(  19) = (   0.5620000   0.2106838   0.5097442  )
        20           H1+ tau(  20) = (   0.9380000   0.2850427   0.5097442  )
        21           H1+ tau(  21) = (   0.0620000   0.7064103   0.5097442  )
        22           H1+ tau(  22) = (   0.4380000   0.7807692   0.5097442  )
        23           O2- tau(  23) = (   0.8660000   0.2136581   0.5081060  )
        24           O2- tau(  24) = (   0.6340000   0.2820684   0.5081060  )
        25           O2- tau(  25) = (   0.3660000   0.7093846   0.5081060  )
        26           O2- tau(  26) = (   0.1340000   0.7777949   0.5081060  )
        27           O2- tau(  27) = (   0.4655000   0.1150085   0.5051573  )
        28           O2- tau(  28) = (   0.0345000   0.3807179   0.5051573  )
        29           O2- tau(  29) = (   0.9655000   0.6107350   0.5051573  )
        30           O2- tau(  30) = (   0.5345000   0.8764444   0.5051573  )
        31           K1+ tau(  31) = (   0.2500000   0.2478632   0.4301288  )
        32           K1+ tau(  32) = (   0.7500000   0.7435897   0.4301288  )
        33           P5+ tau(  33) = (   0.7500000   0.2478632   0.4222655  )
        34           P5+ tau(  34) = (   0.2500000   0.7435897   0.4222655  )
        35           H1+ tau(  35) = (   0.6880000   0.4585470   0.3459265  )
        36           H1+ tau(  36) = (   0.3120000   0.5329060   0.3459265  )
        37           O2- tau(  37) = (   0.1160000   0.0342051   0.3442883  )
        38           O2- tau(  38) = (   0.3840000   0.4615214   0.3442883  )
        39           O2- tau(  39) = (   0.6160000   0.5299316   0.3442883  )
        40           O2- tau(  40) = (   0.8840000   0.9572479   0.3442883  )
        41           O2- tau(  41) = (   0.7155000   0.1328547   0.3413396  )
        42           O2- tau(  42) = (   0.7845000   0.3628718   0.3413396  )
        43           O2- tau(  43) = (   0.2155000   0.6285812   0.3413396  )
        44           O2- tau(  44) = (   0.2845000   0.8585983   0.3413396  )

     number of k points=     1  Gaussian smearing, width (Ry)=  0.0100
                       cart. coord. in units 2pi/alat
        k(    1) = (   0.0000000   0.0000000   0.0000000), wk =   2.0000000

     Dense  grid:   244683 G-vectors     FFT dimensions: (  96,  96, 108)

     Smooth grid:    72523 G-vectors     FFT dimensions: (  64,  64,  72)

     Estimated max dynamical RAM per process >     375.17 MB

     Check: negative core charge=   -0.000044

     Initial potential from superposition of free atoms

     starting charge  235.88357, renormalised to  236.00000

     negative rho (up, down):  1.124E-06 0.000E+00
     Starting wfcs are  158 randomized atomic wfcs

     total cpu time spent up to now is        8.8 secs

     Self-consistent Calculation

     iteration #  1     ecut=    25.00 Ry     beta= 0.70
     Davidson diagonalization with overlap
     ethr =  1.00E-02,  avg # of iterations =  5.0

     total cpu time spent up to now is       13.2 secs

     total energy              =   -1216.18534084 Ry
     estimated scf accuracy    <       9.72206329 Ry

     iteration #  2     ecut=    25.00 Ry     beta= 0.70
     Davidson diagonalization with overlap
     ethr =  4.12E-03,  avg # of iterations =  5.0

     negative rho (up, down):  1.360E-02 0.000E+00

     total cpu time spent up to now is       17.5 secs

     total energy              =   -1212.54078345 Ry
     estimated scf accuracy    <     101.93727282 Ry

     iteration #  3     ecut=    25.00 Ry     beta= 0.70
     Davidson diagonalization with overlap
     ethr =  4.12E-03,  avg # of iterations =  6.0

     negative rho (up, down):  1.994E-02 0.000E+00

     total cpu time spent up to now is       22.6 secs

     total energy              =   -1220.74333259 Ry
     estimated scf accuracy    <      14.95800637 Ry

     iteration #  4     ecut=    25.00 Ry     beta= 0.70
     Davidson diagonalization with overlap
     ethr =  4.12E-03,  avg # of iterations =  2.0

     negative rho (up, down):  2.162E-02 0.000E+00

     total cpu time spent up to now is       25.9 secs

     total energy              =   -1221.23920944 Ry
     estimated scf accuracy    <      10.82792598 Ry

     iteration #  5     ecut=    25.00 Ry     beta= 0.70
     Davidson diagonalization with overlap
     ethr =  4.12E-03,  avg # of iterations =  2.0

     negative rho (up, down):  2.631E-02 0.000E+00

     total cpu time spent up to now is       28.9 secs

     total energy              =   -1220.75153887 Ry
     estimated scf accuracy    <      18.06962817 Ry

     iteration #  6     ecut=    25.00 Ry     beta= 0.70
     Davidson diagonalization with overlap
     ethr =  4.12E-03,  avg # of iterations =  2.0

     negative rho (up, down):  5.484E-04 0.000E+00

     total cpu time spent up to now is       32.1 secs

     total energy              =   -1221.22151882 Ry
     estimated scf accuracy    <       8.41032161 Ry

     iteration #  7     ecut=    25.00 Ry     beta= 0.70
     Davidson diagonalization with overlap
     ethr =  3.56E-03,  avg # of iterations =  2.0

     negative rho (up, down):  1.714E-04 0.000E+00

     total cpu time spent up to now is       35.4 secs

     total energy              =   -1221.81789150 Ry
     estimated scf accuracy    <       3.89556975 Ry

     iteration #  8     ecut=    25.00 Ry     beta= 0.70
     Davidson diagonalization with overlap
     ethr =  1.65E-03,  avg # of iterations =  1.0

     negative rho (up, down):  9.528E-05 0.000E+00

     total cpu time spent up to now is       38.1 secs

     total energy              =   -1221.89470837 Ry
     estimated scf accuracy    <       0.46542773 Ry

     iteration #  9     ecut=    25.00 Ry     beta= 0.70
     Davidson diagonalization with overlap
     ethr =  1.97E-04,  avg # of iterations = 15.0

     negative rho (up, down):  8.774E-05 0.000E+00

     total cpu time spent up to now is       41.7 secs

     total energy              =   -1221.89645231 Ry
     estimated scf accuracy    <       0.75263650 Ry

     iteration # 10     ecut=    25.00 Ry     beta= 0.70
     Davidson diagonalization with overlap
     ethr =  1.97E-04,  avg # of iterations =  1.0

     negative rho (up, down):  6.881E-04 0.000E+00

     total cpu time spent up to now is       44.5 secs

     total energy              =   -1221.87956893 Ry
     estimated scf accuracy    <       0.55168494 Ry

     iteration # 11     ecut=    25.00 Ry     beta= 0.70
     Davidson diagonalization with overlap
     ethr =  1.97E-04,  avg # of iterations =  1.0

     negative rho (up, down):  4.655E-04 0.000E+00

     total cpu time spent up to now is       47.4 secs

     total energy              =   -1221.85766518 Ry
     estimated scf accuracy    <       0.33861051 Ry

     iteration # 12     ecut=    25.00 Ry     beta= 0.70
     Davidson diagonalization with overlap
     ethr =  1.43E-04,  avg # of iterations =  1.0

     negative rho (up, down):  8.214E-06 0.000E+00

     total cpu time spent up to now is       50.1 secs

     total energy              =   -1221.83591924 Ry
     estimated scf accuracy    <       0.66173412 Ry

     iteration # 13     ecut=    25.00 Ry     beta= 0.70
     Davidson diagonalization with overlap
     ethr =  1.43E-04,  avg # of iterations =  2.0

     negative rho (up, down):  1.063E-05 0.000E+00

     total cpu time spent up to now is       53.1 secs

     total energy              =   -1221.74930481 Ry
     estimated scf accuracy    <       5.99254818 Ry

     iteration # 14     ecut=    25.00 Ry     beta= 0.70
     Davidson diagonalization with overlap
     ethr =  1.43E-04,  avg # of iterations =  2.0

     negative rho (up, down):  4.735E-06 0.000E+00

     total cpu time spent up to now is       55.9 secs

     total energy              =   -1221.83633534 Ry
     estimated scf accuracy    <       0.83245344 Ry

     iteration # 15     ecut=    25.00 Ry     beta= 0.70
     Davidson diagonalization with overlap
     ethr =  1.43E-04,  avg # of iterations =  1.0

     negative rho (up, down):  3.099E-06 0.000E+00

     total cpu time spent up to now is       58.6 secs

     total energy              =   -1221.85186658 Ry
     estimated scf accuracy    <       0.72552061 Ry

     iteration # 16     ecut=    25.00 Ry     beta= 0.70
     Davidson diagonalization with overlap
     ethr =  1.43E-04,  avg # of iterations =  1.0

     total cpu time spent up to now is       61.2 secs

     End of self-consistent calculation

          k = 0.0000 0.0000 0.0000 (  9084 PWs)   bands (ev):

   -30.5528 -30.5497 -29.5488 -29.1874 -28.5504 -28.5280 -25.2368 -25.0394
   -25.0017 -24.2482 -24.1357 -23.8898 -23.8058 -23.6803 -23.6566 -22.7431
   -22.7112 -22.6353 -22.6131 -22.5038 -22.3149 -22.1716 -22.1609 -22.0564
   -21.9157 -21.7286 -21.1332 -20.9062 -20.6280 -20.3183 -15.2737 -15.2708
   -15.1626 -15.1587 -15.1086 -15.0992 -14.2574 -14.1904 -14.1707 -13.9018
   -13.8226 -13.8030 -13.2371 -13.2156 -13.2120 -13.1848 -13.1755 -13.1533
   -11.7729 -11.3916 -11.3180 -10.4250 -10.0927  -9.8427  -9.5386  -9.3039
    -9.1978  -8.3876  -8.2904  -7.8062  -7.4467  -7.3848  -7.3574  -6.8409
    -6.7226  -6.6687  -6.6438  -6.5148  -6.4101  -6.2965  -6.1726  -6.0766
    -6.0520  -5.9623  -5.8321  -5.7483  -5.4794  -5.3662  -5.2966  -5.1830
    -4.8573  -4.6914  -4.6442  -4.3269  -4.2088  -4.1893  -4.1092  -3.9103
    -3.8426  -3.8155  -3.7371  -3.6726  -3.5990  -3.4653  -3.4486  -3.4071
    -3.3820  -3.2153  -3.0839  -3.0527  -2.8994  -2.7971  -2.7364  -2.6845
    -2.4709  -2.3208  -2.3099  -2.2876  -2.2216  -2.1685  -2.1462  -2.1114
    -2.0294  -1.9961  -1.8958  -1.8766  -1.8647  -1.8227  -1.8020  -1.6263
    -1.6139  -1.3613   1.3547   1.3686   1.7384   2.6042   2.7076   3.2787
     3.6393   3.7672   4.0495   4.1294   4.2590   4.3482   4.3735   4.6640
     4.7052   4.8735   5.1210   5.1764   5.2742   5.3040

     the Fermi energy is    -1.7731 ev

!    total energy              =   -1221.83216275 Ry
     estimated scf accuracy    <       0.03847209 Ry
     smearing contrib. (-TS)   =      -0.02334649 Ry
     internal energy E=F+TS    =   -1221.80881626 Ry

     The total energy is F=E-TS. E is the sum of the following terms:
     one-electron contribution =   -2541.62577668 Ry
     hartree contribution      =    1333.13076480 Ry
     xc contribution           =    -301.37052852 Ry
     ewald contribution        =     288.05672414 Ry

     convergence has been achieved in  16 iterations

     Writing output data file ./outdir/KDP.save/

     init_run     :      8.75s CPU      8.78s WALL (       1 calls)
     electrons    :     52.01s CPU     52.38s WALL (       1 calls)

     Called by init_run:
     wfcinit      :      1.21s CPU      1.22s WALL (       1 calls)
     potinit      :      2.89s CPU      2.90s WALL (       1 calls)
     hinit0       :      4.59s CPU      4.60s WALL (       1 calls)

     Called by electrons:
     c_bands      :     42.61s CPU     42.73s WALL (      16 calls)
     sum_band     :      3.63s CPU      3.65s WALL (      16 calls)
     v_of_rho     :      5.02s CPU      5.24s WALL (      17 calls)
     mix_rho      :      0.67s CPU      0.67s WALL (      16 calls)

     Called by c_bands:
     init_us_2    :      0.41s CPU      0.42s WALL (      33 calls)
     regterg      :     40.14s CPU     40.27s WALL (      16 calls)

     Called by *egterg:
     rdiaghg      :      1.06s CPU      1.06s WALL (      65 calls)
     h_psi        :     27.89s CPU     27.93s WALL (      66 calls)
     g_psi        :      0.13s CPU      0.13s WALL (      49 calls)

     Called by h_psi:
     h_psi:calbec :      7.84s CPU      7.85s WALL (      66 calls)
     vloc_psi     :     12.21s CPU     12.23s WALL (      66 calls)
     add_vuspsi   :      7.76s CPU      7.76s WALL (      66 calls)

     General routines
     calbec       :      7.84s CPU      7.85s WALL (      66 calls)
     fft          :      2.34s CPU      2.34s WALL (     168 calls)
     ffts         :      0.07s CPU      0.07s WALL (      33 calls)
     fftw         :     11.81s CPU     11.84s WALL (    6402 calls)
     interpolate  :      0.32s CPU      0.32s WALL (      17 calls)

     Parallel routines

     PWSCF        :   1m 0.83s CPU   1m 1.24s WALL


   This run was terminated on:  21:41:42   4Sep2023            

=------------------------------------------------------------------------------=
   JOB DONE.
=------------------------------------------------------------------------------=
