
     Program PWSCF v.6.7MaX starts on  4Sep2023 at 21:35:15 

     This program is part of the open-source Quantum ESPRESSO suite
     for quantum simulation of materials; please cite
         "P. Giannozzi et al., J. Phys.:Condens. Matter 21 395502 (2009);
         "P. Giannozzi et al., J. Phys.:Condens. Matter 29 465901 (2017);
          URL http://www.quantum-espresso.org", 
     in publications or presentations arising from this work. More details at
     http://www.quantum-espresso.org/quote

     Parallel version (MPI), running on     1 processors

     MPI processes distributed on     1 nodes
     Waiting for input...
     Reading input from standard input

     Current dimensions of program PWSCF are:
     Max number of different atomic species (ntypx) = 10
     Max number of k-points (npk) =  40000
     Max angular momentum in pseudopotentials (lmaxx) =  3
     Message from routine read_pp_mesh:
     mesh size missing, using the one in header
     Message from routine read_pp_mesh:
     mesh size missing, using the one in header
     Message from routine read_pp_mesh:
     mesh size missing, using the one in header
     Message from routine read_pp_mesh:
     mesh size missing, using the one in header

     gamma-point specific algorithms are used

     Subspace diagonalization in iterative solution of the eigenvalue problem:
     a serial algorithm will be used


     G-vector sticks info
     --------------------
     sticks:   dense  smooth     PW     G-vecs:    dense   smooth      PW
     Sum        7033    3133    781               489365   145045   18167



     bravais-lattice index     =            8
     lattice parameter (alat)  =      19.8988  a.u.
     unit-cell volume          =    8586.0604 (a.u.)^3
     number of atoms/cell      =           44
     number of atomic types    =            4
     number of electrons       =       236.00
     number of Kohn-Sham states=          142
     kinetic-energy cutoff     =      25.0000  Ry
     charge density cutoff     =     225.0000  Ry
     scf convergence threshold =      1.0E+00
     mixing beta               =       0.7000
     number of iterations used =            8  plain     mixing
     Exchange-correlation= PBE
                           (   1   4   3   4   0   0   0)

     celldm(1)=  19.898816  celldm(2)=   0.991453  celldm(3)=   1.099107
     celldm(4)=   0.000000  celldm(5)=   0.000000  celldm(6)=   0.000000

     crystal axes: (cart. coord. in units of alat)
               a(1) = (   1.000000   0.000000   0.000000 )  
               a(2) = (   0.000000   0.991453   0.000000 )  
               a(3) = (   0.000000   0.000000   1.099107 )  

     reciprocal axes: (cart. coord. in units 2 pi/alat)
               b(1) = (  1.000000  0.000000  0.000000 )  
               b(2) = (  0.000000  1.008621  0.000000 )  
               b(3) = (  0.000000  0.000000  0.909829 )  


     PseudoPot. # 1 for K  read from file:
     /home/johnpaul/JP_QME/Dojo_Pseudo/nc-sr-05_pbe_stringent_upf/K.upf
     MD5 check sum: 0aa97b2c023445f040759afc9fdb6c80
     Pseudo is Norm-conserving + core correction, Zval =  9.0
     Generated using ONCVPSP code by D. R. Hamann
     Using radial grid of 2222 points,  6 beta functions with: 
                l(1) =   0
                l(2) =   0
                l(3) =   1
                l(4) =   1
                l(5) =   2
                l(6) =   2

     PseudoPot. # 2 for P  read from file:
     /home/johnpaul/JP_QME/Dojo_Pseudo/nc-sr-05_pbe_stringent_upf/P.upf
     MD5 check sum: e25a93595ed76be8dfbf715c9c2e8dc8
     Pseudo is Norm-conserving + core correction, Zval =  5.0
     Generated using ONCVPSP code by D. R. Hamann
     Using radial grid of 1298 points,  6 beta functions with: 
                l(1) =   0
                l(2) =   0
                l(3) =   1
                l(4) =   1
                l(5) =   2
                l(6) =   2

     PseudoPot. # 3 for O  read from file:
     /home/johnpaul/JP_QME/Dojo_Pseudo/nc-sr-05_pbe_stringent_upf/O.upf
     MD5 check sum: 9db02a5ece9d56b81b65a73f8163743d
     Pseudo is Norm-conserving + core correction, Zval =  6.0
     Generated using ONCVPSP code by D. R. Hamann
     Using radial grid of  936 points,  5 beta functions with: 
                l(1) =   0
                l(2) =   0
                l(3) =   1
                l(4) =   1
                l(5) =   2

     PseudoPot. # 4 for H  read from file:
     /home/johnpaul/JP_QME/Dojo_Pseudo/nc-sr-05_pbe_stringent_upf/H.upf
     MD5 check sum: e96aa7e3e4a958db16958554ea960e2a
     Pseudo is Norm-conserving, Zval =  1.0
     Generated using ONCVPSP code by D. R. Hamann
     Using radial grid of 1166 points,  3 beta functions with: 
                l(1) =   0
                l(2) =   0
                l(3) =   1

     atomic species   valence    mass     pseudopotential
        K1+            9.00    39.09830     K ( 1.00)
        P5+            5.00    30.97376     P ( 1.00)
        O2-            6.00    15.99940     O ( 1.00)
        H1+            1.00     1.00794     H ( 1.00)

      2 Sym. Ops. (no inversion) found



   Cartesian axes

     site n.     atom                  positions (alat units)
         1           K1+ tau(   1) = (   0.7500000   0.2478632   0.7577641  )
         2           K1+ tau(   2) = (   0.2500000   0.7435897   0.7577641  )
         3           P5+ tau(   3) = (   0.2500000   0.2478632   0.7499009  )
         4           P5+ tau(   4) = (   0.7500000   0.7435897   0.7499009  )
         5           H1+ tau(   5) = (   0.1880000   0.4585470   0.6735618  )
         6           H1+ tau(   6) = (   0.8120000   0.5329060   0.6735618  )
         7           O2- tau(   7) = (   0.6160000   0.0342051   0.6719236  )
         8           O2- tau(   8) = (   0.8840000   0.4615214   0.6719236  )
         9           O2- tau(   9) = (   0.1160000   0.5299316   0.6719236  )
        10           O2- tau(  10) = (   0.3840000   0.9572479   0.6719236  )
        11           O2- tau(  11) = (   0.2155000   0.1328547   0.6689749  )
        12           O2- tau(  12) = (   0.2845000   0.3628718   0.6689749  )
        13           O2- tau(  13) = (   0.7155000   0.6285812   0.6689749  )
        14           O2- tau(  14) = (   0.7845000   0.8585983   0.6689749  )
        15           K1+ tau(  15) = (   0.0000000   0.0000000   0.5939464  )
        16           K1+ tau(  16) = (   0.5000000   0.4957265   0.5939464  )
        17           P5+ tau(  17) = (   0.5000000   0.0000000   0.5860832  )
        18           P5+ tau(  18) = (   0.0000000   0.4957265   0.5860832  )
        19           H1+ tau(  19) = (   0.5620000   0.2106838   0.5097442  )
        20           H1+ tau(  20) = (   0.9380000   0.2850427   0.5097442  )
        21           H1+ tau(  21) = (   0.0620000   0.7064103   0.5097442  )
        22           H1+ tau(  22) = (   0.4380000   0.7807692   0.5097442  )
        23           O2- tau(  23) = (   0.8660000   0.2136581   0.5081060  )
        24           O2- tau(  24) = (   0.6340000   0.2820684   0.5081060  )
        25           O2- tau(  25) = (   0.3660000   0.7093846   0.5081060  )
        26           O2- tau(  26) = (   0.1340000   0.7777949   0.5081060  )
        27           O2- tau(  27) = (   0.4655000   0.1150085   0.5051573  )
        28           O2- tau(  28) = (   0.0345000   0.3807179   0.5051573  )
        29           O2- tau(  29) = (   0.9655000   0.6107350   0.5051573  )
        30           O2- tau(  30) = (   0.5345000   0.8764444   0.5051573  )
        31           K1+ tau(  31) = (   0.2500000   0.2478632   0.4301288  )
        32           K1+ tau(  32) = (   0.7500000   0.7435897   0.4301288  )
        33           P5+ tau(  33) = (   0.7500000   0.2478632   0.4222655  )
        34           P5+ tau(  34) = (   0.2500000   0.7435897   0.4222655  )
        35           H1+ tau(  35) = (   0.6880000   0.4585470   0.3459265  )
        36           H1+ tau(  36) = (   0.3120000   0.5329060   0.3459265  )
        37           O2- tau(  37) = (   0.1160000   0.0342051   0.3442883  )
        38           O2- tau(  38) = (   0.3840000   0.4615214   0.3442883  )
        39           O2- tau(  39) = (   0.6160000   0.5299316   0.3442883  )
        40           O2- tau(  40) = (   0.8840000   0.9572479   0.3442883  )
        41           O2- tau(  41) = (   0.7155000   0.1328547   0.3413396  )
        42           O2- tau(  42) = (   0.7845000   0.3628718   0.3413396  )
        43           O2- tau(  43) = (   0.2155000   0.6285812   0.3413396  )
        44           O2- tau(  44) = (   0.2845000   0.8585983   0.3413396  )

     number of k points=     1  Gaussian smearing, width (Ry)=  0.0100
                       cart. coord. in units 2pi/alat
        k(    1) = (   0.0000000   0.0000000   0.0000000), wk =   2.0000000

     Dense  grid:   244683 G-vectors     FFT dimensions: (  96,  96, 108)

     Smooth grid:    72523 G-vectors     FFT dimensions: (  64,  64,  72)

     Estimated max dynamical RAM per process >     375.17 MB

     Check: negative core charge=   -0.000044

     Initial potential from superposition of free atoms

     starting charge  235.88357, renormalised to  236.00000

     negative rho (up, down):  1.124E-06 0.000E+00
     Starting wfcs are  158 randomized atomic wfcs

     total cpu time spent up to now is        8.8 secs

     Self-consistent Calculation

     iteration #  1     ecut=    25.00 Ry     beta= 0.70
     Davidson diagonalization with overlap
     ethr =  1.00E-02,  avg # of iterations =  5.0

     total cpu time spent up to now is       13.6 secs

     total energy              =   -1216.18534084 Ry
     estimated scf accuracy    <       9.72206329 Ry

     iteration #  2     ecut=    25.00 Ry     beta= 0.70
     Davidson diagonalization with overlap
     ethr =  4.12E-03,  avg # of iterations =  5.0

     negative rho (up, down):  1.360E-02 0.000E+00

     total cpu time spent up to now is       18.4 secs

     total energy              =   -1212.54078345 Ry
     estimated scf accuracy    <     101.93727282 Ry

     iteration #  3     ecut=    25.00 Ry     beta= 0.70
     Davidson diagonalization with overlap
     ethr =  4.12E-03,  avg # of iterations =  6.0

     negative rho (up, down):  1.994E-02 0.000E+00

     total cpu time spent up to now is       23.6 secs

     total energy              =   -1220.74333259 Ry
     estimated scf accuracy    <      14.95800637 Ry

     iteration #  4     ecut=    25.00 Ry     beta= 0.70
     Davidson diagonalization with overlap
     ethr =  4.12E-03,  avg # of iterations =  2.0

     negative rho (up, down):  2.162E-02 0.000E+00

     total cpu time spent up to now is       27.0 secs

     total energy              =   -1221.23920944 Ry
     estimated scf accuracy    <      10.82792598 Ry

     iteration #  5     ecut=    25.00 Ry     beta= 0.70
     Davidson diagonalization with overlap
     ethr =  4.12E-03,  avg # of iterations =  2.0

     negative rho (up, down):  2.631E-02 0.000E+00

     total cpu time spent up to now is       30.3 secs

     total energy              =   -1220.75153887 Ry
     estimated scf accuracy    <      18.06962817 Ry

     iteration #  6     ecut=    25.00 Ry     beta= 0.70
     Davidson diagonalization with overlap
     ethr =  4.12E-03,  avg # of iterations =  2.0

     negative rho (up, down):  5.484E-04 0.000E+00

     total cpu time spent up to now is       33.5 secs

     total energy              =   -1221.22151882 Ry
     estimated scf accuracy    <       8.41032161 Ry

     iteration #  7     ecut=    25.00 Ry     beta= 0.70
     Davidson diagonalization with overlap
     ethr =  3.56E-03,  avg # of iterations =  2.0

     negative rho (up, down):  1.714E-04 0.000E+00

     total cpu time spent up to now is       36.6 secs

     total energy              =   -1221.81789150 Ry
     estimated scf accuracy    <       3.89556975 Ry

     iteration #  8     ecut=    25.00 Ry     beta= 0.70
     Davidson diagonalization with overlap
     ethr =  1.65E-03,  avg # of iterations =  1.0

     total cpu time spent up to now is       39.6 secs

     End of self-consistent calculation

          k = 0.0000 0.0000 0.0000 (  9084 PWs)   bands (ev):

   -30.5420 -30.5331 -29.5907 -29.2390 -28.5639 -28.5582 -25.1628 -24.9478
   -24.9046 -24.2098 -24.1256 -23.8679 -23.7318 -23.6126 -23.6001 -22.7015
   -22.6575 -22.5711 -22.5268 -22.4475 -22.3234 -22.0436 -21.9487 -21.9083
   -21.8542 -21.7072 -20.9816 -20.7936 -20.7499 -20.4953 -15.2636 -15.2549
   -15.1523 -15.1428 -15.0987 -15.0862 -14.2932 -14.2342 -14.2189 -13.9452
   -13.8846 -13.8617 -13.2575 -13.2486 -13.2338 -13.2189 -13.1849 -13.1743
   -11.7242 -11.3269 -11.2468 -10.3895 -10.0619  -9.8040  -9.4863  -9.2491
    -9.1726  -8.3381  -8.2435  -7.7714  -7.3555  -7.3171  -7.2651  -6.8022
    -6.6882  -6.6664  -6.5775  -6.4670  -6.3708  -6.2450  -6.1418  -6.0123
    -5.9849  -5.8964  -5.7927  -5.7122  -5.4236  -5.2901  -5.2039  -5.1289
    -4.8082  -4.6172  -4.5720  -4.2872  -4.1553  -4.1033  -4.0728  -3.8550
    -3.8090  -3.7494  -3.6833  -3.5872  -3.5745  -3.4301  -3.4103  -3.3879
    -3.2622  -3.1688  -3.0461  -2.9494  -2.8709  -2.7837  -2.7090  -2.6668
    -2.5782  -2.4572  -2.3679  -2.2660  -2.2590  -2.1648  -2.1394  -2.0968
    -2.0736  -2.0308  -1.9442  -1.8577  -1.8346  -1.8178  -1.7691  -1.5903
    -1.3772  -1.1558   1.4106   1.4208   1.7459   2.6077   2.7154   3.2865
     3.6271   3.7863   4.0725   4.1569   4.2749   4.3733   4.3873   4.7295
     4.7426   5.1737   5.2696   5.3338   5.3514   5.5422

     the Fermi energy is    -1.7530 ev

!    total energy              =   -1221.53569725 Ry
     estimated scf accuracy    <       0.46542773 Ry
     smearing contrib. (-TS)   =      -0.01936697 Ry
     internal energy E=F+TS    =   -1221.51633028 Ry

     The total energy is F=E-TS. E is the sum of the following terms:
     one-electron contribution =   -2539.60020220 Ry
     hartree contribution      =    1331.28508775 Ry
     xc contribution           =    -301.25793997 Ry
     ewald contribution        =     288.05672414 Ry

     convergence has been achieved in   8 iterations

     Writing output data file ./outdir/KDP.save/

     init_run     :      8.60s CPU      8.69s WALL (       1 calls)
     electrons    :     30.67s CPU     30.89s WALL (       1 calls)

     Called by init_run:
     wfcinit      :      1.14s CPU      1.17s WALL (       1 calls)
     potinit      :      2.91s CPU      2.95s WALL (       1 calls)
     hinit0       :      4.49s CPU      4.51s WALL (       1 calls)

     Called by electrons:
     c_bands      :     25.45s CPU     25.54s WALL (       8 calls)
     sum_band     :      2.22s CPU      2.22s WALL (       8 calls)
     v_of_rho     :      2.78s CPU      2.95s WALL (       9 calls)
     mix_rho      :      0.31s CPU      0.31s WALL (       8 calls)

     Called by c_bands:
     init_us_2    :      0.22s CPU      0.23s WALL (      17 calls)
     regterg      :     24.19s CPU     24.28s WALL (       8 calls)

     Called by *egterg:
     rdiaghg      :      0.61s CPU      0.61s WALL (      33 calls)
     h_psi        :     16.94s CPU     17.01s WALL (      34 calls)
     g_psi        :      0.07s CPU      0.07s WALL (      25 calls)

     Called by h_psi:
     h_psi:calbec :      4.52s CPU      4.52s WALL (      34 calls)
     vloc_psi     :      7.87s CPU      7.92s WALL (      34 calls)
     add_vuspsi   :      4.51s CPU      4.51s WALL (      34 calls)

     General routines
     calbec       :      4.52s CPU      4.52s WALL (      34 calls)
     fft          :      1.28s CPU      1.29s WALL (      88 calls)
     ffts         :      0.04s CPU      0.04s WALL (      17 calls)
     fftw         :      7.67s CPU      7.72s WALL (    3526 calls)
     interpolate  :      0.16s CPU      0.16s WALL (       9 calls)

     Parallel routines

     PWSCF        :     39.33s CPU     39.66s WALL


   This run was terminated on:  21:35:55   4Sep2023            

=------------------------------------------------------------------------------=
   JOB DONE.
=------------------------------------------------------------------------------=
