
     Program PWSCF v.6.7MaX starts on  5Sep2023 at 20:50: 1 

     This program is part of the open-source Quantum ESPRESSO suite
     for quantum simulation of materials; please cite
         "P. Giannozzi et al., J. Phys.:Condens. Matter 21 395502 (2009);
         "P. Giannozzi et al., J. Phys.:Condens. Matter 29 465901 (2017);
          URL http://www.quantum-espresso.org", 
     in publications or presentations arising from this work. More details at
     http://www.quantum-espresso.org/quote

     Parallel version (MPI), running on     1 processors

     MPI processes distributed on     1 nodes
     Waiting for input...
     Reading input from standard input

     Current dimensions of program PWSCF are:
     Max number of different atomic species (ntypx) = 10
     Max number of k-points (npk) =  40000
     Max angular momentum in pseudopotentials (lmaxx) =  3
     Message from routine read_pp_mesh:
     mesh size missing, using the one in header
     Message from routine read_pp_mesh:
     mesh size missing, using the one in header
     Message from routine read_pp_mesh:
     mesh size missing, using the one in header
     Message from routine read_pp_mesh:
     mesh size missing, using the one in header

     gamma-point specific algorithms are used

     Subspace diagonalization in iterative solution of the eigenvalue problem:
     a serial algorithm will be used


     G-vector sticks info
     --------------------
     sticks:   dense  smooth     PW     G-vecs:    dense   smooth      PW
     Sum        7033    3133    781               489365   145045   18167



     bravais-lattice index     =            8
     lattice parameter (alat)  =      19.8988  a.u.
     unit-cell volume          =    8586.0604 (a.u.)^3
     number of atoms/cell      =           44
     number of atomic types    =            4
     number of electrons       =       236.00
     number of Kohn-Sham states=          142
     kinetic-energy cutoff     =      25.0000  Ry
     charge density cutoff     =     225.0000  Ry
     scf convergence threshold =      1.0E-02
     mixing beta               =       0.7000
     number of iterations used =            8  plain     mixing
     Exchange-correlation= PBE
                           (   1   4   3   4   0   0   0)

     celldm(1)=  19.898816  celldm(2)=   0.991453  celldm(3)=   1.099107
     celldm(4)=   0.000000  celldm(5)=   0.000000  celldm(6)=   0.000000

     crystal axes: (cart. coord. in units of alat)
               a(1) = (   1.000000   0.000000   0.000000 )  
               a(2) = (   0.000000   0.991453   0.000000 )  
               a(3) = (   0.000000   0.000000   1.099107 )  

     reciprocal axes: (cart. coord. in units 2 pi/alat)
               b(1) = (  1.000000  0.000000  0.000000 )  
               b(2) = (  0.000000  1.008621  0.000000 )  
               b(3) = (  0.000000  0.000000  0.909829 )  


     PseudoPot. # 1 for K  read from file:
     /home/johnpaul/JP_QME/Dojo_Pseudo/nc-sr-05_pbe_stringent_upf/K.upf
     MD5 check sum: 0aa97b2c023445f040759afc9fdb6c80
     Pseudo is Norm-conserving + core correction, Zval =  9.0
     Generated using ONCVPSP code by D. R. Hamann
     Using radial grid of 2222 points,  6 beta functions with: 
                l(1) =   0
                l(2) =   0
                l(3) =   1
                l(4) =   1
                l(5) =   2
                l(6) =   2

     PseudoPot. # 2 for P  read from file:
     /home/johnpaul/JP_QME/Dojo_Pseudo/nc-sr-05_pbe_stringent_upf/P.upf
     MD5 check sum: e25a93595ed76be8dfbf715c9c2e8dc8
     Pseudo is Norm-conserving + core correction, Zval =  5.0
     Generated using ONCVPSP code by D. R. Hamann
     Using radial grid of 1298 points,  6 beta functions with: 
                l(1) =   0
                l(2) =   0
                l(3) =   1
                l(4) =   1
                l(5) =   2
                l(6) =   2

     PseudoPot. # 3 for O  read from file:
     /home/johnpaul/JP_QME/Dojo_Pseudo/nc-sr-05_pbe_stringent_upf/O.upf
     MD5 check sum: 9db02a5ece9d56b81b65a73f8163743d
     Pseudo is Norm-conserving + core correction, Zval =  6.0
     Generated using ONCVPSP code by D. R. Hamann
     Using radial grid of  936 points,  5 beta functions with: 
                l(1) =   0
                l(2) =   0
                l(3) =   1
                l(4) =   1
                l(5) =   2

     PseudoPot. # 4 for H  read from file:
     /home/johnpaul/JP_QME/Dojo_Pseudo/nc-sr-05_pbe_stringent_upf/H.upf
     MD5 check sum: e96aa7e3e4a958db16958554ea960e2a
     Pseudo is Norm-conserving, Zval =  1.0
     Generated using ONCVPSP code by D. R. Hamann
     Using radial grid of 1166 points,  3 beta functions with: 
                l(1) =   0
                l(2) =   0
                l(3) =   1

     atomic species   valence    mass     pseudopotential
        K1+            9.00    39.09830     K ( 1.00)
        P5+            5.00    30.97376     P ( 1.00)
        O2-            6.00    15.99940     O ( 1.00)
        H1+            1.00     1.00794     H ( 1.00)

      2 Sym. Ops. (no inversion) found



   Cartesian axes

     site n.     atom                  positions (alat units)
         1           K1+ tau(   1) = (   0.7500000   0.2478632   0.7577641  )
         2           K1+ tau(   2) = (   0.2500000   0.7435897   0.7577641  )
         3           P5+ tau(   3) = (   0.2500000   0.2478632   0.7499009  )
         4           P5+ tau(   4) = (   0.7500000   0.7435897   0.7499009  )
         5           H1+ tau(   5) = (   0.1880000   0.4585470   0.6735618  )
         6           H1+ tau(   6) = (   0.8120000   0.5329060   0.6735618  )
         7           O2- tau(   7) = (   0.6160000   0.0342051   0.6719236  )
         8           O2- tau(   8) = (   0.8840000   0.4615214   0.6719236  )
         9           O2- tau(   9) = (   0.1160000   0.5299316   0.6719236  )
        10           O2- tau(  10) = (   0.3840000   0.9572479   0.6719236  )
        11           O2- tau(  11) = (   0.2155000   0.1328547   0.6689749  )
        12           O2- tau(  12) = (   0.2845000   0.3628718   0.6689749  )
        13           O2- tau(  13) = (   0.7155000   0.6285812   0.6689749  )
        14           O2- tau(  14) = (   0.7845000   0.8585983   0.6689749  )
        15           K1+ tau(  15) = (   0.0000000   0.0000000   0.5939464  )
        16           K1+ tau(  16) = (   0.5000000   0.4957265   0.5939464  )
        17           P5+ tau(  17) = (   0.5000000   0.0000000   0.5860832  )
        18           P5+ tau(  18) = (   0.0000000   0.4957265   0.5860832  )
        19           H1+ tau(  19) = (   0.5620000   0.2106838   0.5097442  )
        20           H1+ tau(  20) = (   0.9380000   0.2850427   0.5097442  )
        21           H1+ tau(  21) = (   0.0620000   0.7064103   0.5097442  )
        22           H1+ tau(  22) = (   0.4380000   0.7807692   0.5097442  )
        23           O2- tau(  23) = (   0.8660000   0.2136581   0.5081060  )
        24           O2- tau(  24) = (   0.6340000   0.2820684   0.5081060  )
        25           O2- tau(  25) = (   0.3660000   0.7093846   0.5081060  )
        26           O2- tau(  26) = (   0.1340000   0.7777949   0.5081060  )
        27           O2- tau(  27) = (   0.4655000   0.1150085   0.5051573  )
        28           O2- tau(  28) = (   0.0345000   0.3807179   0.5051573  )
        29           O2- tau(  29) = (   0.9655000   0.6107350   0.5051573  )
        30           O2- tau(  30) = (   0.5345000   0.8764444   0.5051573  )
        31           K1+ tau(  31) = (   0.2500000   0.2478632   0.4301288  )
        32           K1+ tau(  32) = (   0.7500000   0.7435897   0.4301288  )
        33           P5+ tau(  33) = (   0.7500000   0.2478632   0.4222655  )
        34           P5+ tau(  34) = (   0.2500000   0.7435897   0.4222655  )
        35           H1+ tau(  35) = (   0.6880000   0.4585470   0.3459265  )
        36           H1+ tau(  36) = (   0.3120000   0.5329060   0.3459265  )
        37           O2- tau(  37) = (   0.1160000   0.0342051   0.3442883  )
        38           O2- tau(  38) = (   0.3840000   0.4615214   0.3442883  )
        39           O2- tau(  39) = (   0.6160000   0.5299316   0.3442883  )
        40           O2- tau(  40) = (   0.8840000   0.9572479   0.3442883  )
        41           O2- tau(  41) = (   0.7155000   0.1328547   0.3413396  )
        42           O2- tau(  42) = (   0.7845000   0.3628718   0.3413396  )
        43           O2- tau(  43) = (   0.2155000   0.6285812   0.3413396  )
        44           O2- tau(  44) = (   0.2845000   0.8585983   0.3413396  )

     number of k points=     1  Gaussian smearing, width (Ry)=  0.0100
                       cart. coord. in units 2pi/alat
        k(    1) = (   0.0000000   0.0000000   0.0000000), wk =   2.0000000

     Dense  grid:   244683 G-vectors     FFT dimensions: (  96,  96, 108)

     Smooth grid:    72523 G-vectors     FFT dimensions: (  64,  64,  72)

     Estimated max dynamical RAM per process >     375.17 MB

     Check: negative core charge=   -0.000044

     Initial potential from superposition of free atoms

     starting charge  235.88357, renormalised to  236.00000

     negative rho (up, down):  1.124E-06 0.000E+00
     Starting wfcs are  158 randomized atomic wfcs

     total cpu time spent up to now is       12.2 secs

     Self-consistent Calculation

     iteration #  1     ecut=    25.00 Ry     beta= 0.70
     Davidson diagonalization with overlap
     ethr =  1.00E-02,  avg # of iterations =  5.0

     total cpu time spent up to now is       16.6 secs

     total energy              =   -1216.18534084 Ry
     estimated scf accuracy    <       9.72206329 Ry

     iteration #  2     ecut=    25.00 Ry     beta= 0.70
     Davidson diagonalization with overlap
     ethr =  4.12E-03,  avg # of iterations =  5.0

     negative rho (up, down):  1.360E-02 0.000E+00

     total cpu time spent up to now is       20.9 secs

     total energy              =   -1212.54078345 Ry
     estimated scf accuracy    <     101.93727282 Ry

     iteration #  3     ecut=    25.00 Ry     beta= 0.70
     Davidson diagonalization with overlap
     ethr =  4.12E-03,  avg # of iterations =  6.0

     negative rho (up, down):  1.994E-02 0.000E+00

     total cpu time spent up to now is       25.4 secs

     total energy              =   -1220.74333259 Ry
     estimated scf accuracy    <      14.95800637 Ry

     iteration #  4     ecut=    25.00 Ry     beta= 0.70
     Davidson diagonalization with overlap
     ethr =  4.12E-03,  avg # of iterations =  2.0

     negative rho (up, down):  2.162E-02 0.000E+00

     total cpu time spent up to now is       28.4 secs

     total energy              =   -1221.23920944 Ry
     estimated scf accuracy    <      10.82792598 Ry

     iteration #  5     ecut=    25.00 Ry     beta= 0.70
     Davidson diagonalization with overlap
     ethr =  4.12E-03,  avg # of iterations =  2.0

     negative rho (up, down):  2.631E-02 0.000E+00

     total cpu time spent up to now is       31.3 secs

     total energy              =   -1220.75153887 Ry
     estimated scf accuracy    <      18.06962817 Ry

     iteration #  6     ecut=    25.00 Ry     beta= 0.70
     Davidson diagonalization with overlap
     ethr =  4.12E-03,  avg # of iterations =  2.0

     negative rho (up, down):  5.484E-04 0.000E+00

     total cpu time spent up to now is       34.4 secs

     total energy              =   -1221.22151882 Ry
     estimated scf accuracy    <       8.41032161 Ry

     iteration #  7     ecut=    25.00 Ry     beta= 0.70
     Davidson diagonalization with overlap
     ethr =  3.56E-03,  avg # of iterations =  2.0

     negative rho (up, down):  1.714E-04 0.000E+00

     total cpu time spent up to now is       37.3 secs

     total energy              =   -1221.81789150 Ry
     estimated scf accuracy    <       3.89556975 Ry

     iteration #  8     ecut=    25.00 Ry     beta= 0.70
     Davidson diagonalization with overlap
     ethr =  1.65E-03,  avg # of iterations =  1.0

     negative rho (up, down):  9.528E-05 0.000E+00

     total cpu time spent up to now is       40.0 secs

     total energy              =   -1221.89470837 Ry
     estimated scf accuracy    <       0.46542773 Ry

     iteration #  9     ecut=    25.00 Ry     beta= 0.70
     Davidson diagonalization with overlap
     ethr =  1.97E-04,  avg # of iterations = 15.0

     negative rho (up, down):  8.774E-05 0.000E+00

     total cpu time spent up to now is       43.8 secs

     total energy              =   -1221.89645231 Ry
     estimated scf accuracy    <       0.75263650 Ry

     iteration # 10     ecut=    25.00 Ry     beta= 0.70
     Davidson diagonalization with overlap
     ethr =  1.97E-04,  avg # of iterations =  1.0

     negative rho (up, down):  6.881E-04 0.000E+00

     total cpu time spent up to now is       46.6 secs

     total energy              =   -1221.87956893 Ry
     estimated scf accuracy    <       0.55168494 Ry

     iteration # 11     ecut=    25.00 Ry     beta= 0.70
     Davidson diagonalization with overlap
     ethr =  1.97E-04,  avg # of iterations =  1.0

     negative rho (up, down):  4.655E-04 0.000E+00

     total cpu time spent up to now is       49.4 secs

     total energy              =   -1221.85766518 Ry
     estimated scf accuracy    <       0.33861051 Ry

     iteration # 12     ecut=    25.00 Ry     beta= 0.70
     Davidson diagonalization with overlap
     ethr =  1.43E-04,  avg # of iterations =  1.0

     negative rho (up, down):  8.214E-06 0.000E+00

     total cpu time spent up to now is       52.2 secs

     total energy              =   -1221.83591924 Ry
     estimated scf accuracy    <       0.66173412 Ry

     iteration # 13     ecut=    25.00 Ry     beta= 0.70
     Davidson diagonalization with overlap
     ethr =  1.43E-04,  avg # of iterations =  2.0

     negative rho (up, down):  1.063E-05 0.000E+00

     total cpu time spent up to now is       55.1 secs

     total energy              =   -1221.74930481 Ry
     estimated scf accuracy    <       5.99254818 Ry

     iteration # 14     ecut=    25.00 Ry     beta= 0.70
     Davidson diagonalization with overlap
     ethr =  1.43E-04,  avg # of iterations =  2.0

     negative rho (up, down):  4.735E-06 0.000E+00

     total cpu time spent up to now is       58.1 secs

     total energy              =   -1221.83633534 Ry
     estimated scf accuracy    <       0.83245344 Ry

     iteration # 15     ecut=    25.00 Ry     beta= 0.70
     Davidson diagonalization with overlap
     ethr =  1.43E-04,  avg # of iterations =  1.0

     negative rho (up, down):  3.099E-06 0.000E+00

     total cpu time spent up to now is       61.0 secs

     total energy              =   -1221.85186658 Ry
     estimated scf accuracy    <       0.72552061 Ry

     iteration # 16     ecut=    25.00 Ry     beta= 0.70
     Davidson diagonalization with overlap
     ethr =  1.43E-04,  avg # of iterations =  1.0

     negative rho (up, down):  2.665E-07 0.000E+00

     total cpu time spent up to now is       63.8 secs

     total energy              =   -1221.86302604 Ry
     estimated scf accuracy    <       0.03847209 Ry

     iteration # 17     ecut=    25.00 Ry     beta= 0.70
     Davidson diagonalization with overlap
     ethr =  1.63E-05,  avg # of iterations =  2.0

     total cpu time spent up to now is       66.8 secs

     total energy              =   -1221.85944633 Ry
     estimated scf accuracy    <       0.11239949 Ry

     iteration # 18     ecut=    25.00 Ry     beta= 0.70
     Davidson diagonalization with overlap
     ethr =  1.63E-05,  avg # of iterations =  2.0

     total cpu time spent up to now is       69.7 secs

     total energy              =   -1221.86102182 Ry
     estimated scf accuracy    <       0.08743159 Ry

     iteration # 19     ecut=    25.00 Ry     beta= 0.70
     Davidson diagonalization with overlap
     ethr =  1.63E-05,  avg # of iterations =  2.0

     total cpu time spent up to now is       72.7 secs

     total energy              =   -1221.85997569 Ry
     estimated scf accuracy    <       0.10815183 Ry

     iteration # 20     ecut=    25.00 Ry     beta= 0.70
     Davidson diagonalization with overlap
     ethr =  1.63E-05,  avg # of iterations =  1.0

     total cpu time spent up to now is       75.4 secs

     total energy              =   -1221.85355005 Ry
     estimated scf accuracy    <       0.48143631 Ry

     iteration # 21     ecut=    25.00 Ry     beta= 0.70
     Davidson diagonalization with overlap
     ethr =  1.63E-05,  avg # of iterations =  1.0

     total cpu time spent up to now is       78.2 secs

     total energy              =   -1221.86415426 Ry
     estimated scf accuracy    <       0.03422205 Ry

     iteration # 22     ecut=    25.00 Ry     beta= 0.70
     Davidson diagonalization with overlap
     ethr =  1.45E-05,  avg # of iterations =  1.0

     total cpu time spent up to now is       80.8 secs

     End of self-consistent calculation

          k = 0.0000 0.0000 0.0000 (  9084 PWs)   bands (ev):

   -30.5593 -30.5541 -29.5332 -29.1898 -28.5151 -28.5138 -25.2603 -25.0215
   -25.0002 -24.2788 -24.1191 -23.9073 -23.8025 -23.6847 -23.6773 -22.7170
   -22.6861 -22.6310 -22.6201 -22.4946 -22.2800 -22.1582 -22.1271 -22.0294
   -21.9012 -21.7254 -21.1674 -20.9393 -20.6432 -20.3362 -15.2800 -15.2752
   -15.1688 -15.1637 -15.1145 -15.1039 -14.2417 -14.1757 -14.1558 -13.9039
   -13.8261 -13.8057 -13.2045 -13.2012 -13.1838 -13.1645 -13.1441 -13.1354
   -11.7905 -11.3793 -11.3084 -10.4483 -10.0919  -9.8463  -9.5334  -9.3229
    -9.1864  -8.3735  -8.2758  -7.8052  -7.4371  -7.3708  -7.3624  -6.8508
    -6.7157  -6.6508  -6.6342  -6.5165  -6.4111  -6.2840  -6.1770  -6.0795
    -6.0435  -5.9676  -5.8484  -5.7612  -5.4940  -5.3457  -5.2789  -5.1845
    -4.8536  -4.6869  -4.6560  -4.3252  -4.2115  -4.1847  -4.1134  -3.9083
    -3.8234  -3.8007  -3.7125  -3.6506  -3.5941  -3.4616  -3.4496  -3.3867
    -3.3801  -3.2089  -3.0783  -3.0585  -2.9054  -2.7973  -2.7344  -2.6732
    -2.4478  -2.3329  -2.3008  -2.2951  -2.2073  -2.1747  -2.1551  -2.1184
    -2.0328  -1.9784  -1.9078  -1.8710  -1.8500  -1.8420  -1.7914  -1.6479
    -1.6275  -1.3653   1.3341   1.3468   1.7370   2.6044   2.7057   3.2749
     3.6445   3.7635   4.0401   4.1256   4.2549   4.3422   4.3715   4.6553
     4.7008   4.8700   5.1249   5.1683   5.2763   5.3070

     the Fermi energy is    -1.7749 ev

!    total energy              =   -1221.85864069 Ry
     estimated scf accuracy    <       0.00764900 Ry
     smearing contrib. (-TS)   =      -0.02462230 Ry
     internal energy E=F+TS    =   -1221.83401839 Ry

     The total energy is F=E-TS. E is the sum of the following terms:
     one-electron contribution =   -2540.19208662 Ry
     hartree contribution      =    1331.64896039 Ry
     xc contribution           =    -301.34761631 Ry
     ewald contribution        =     288.05672414 Ry

     convergence has been achieved in  22 iterations

     Writing output data file ./outdir/KDP.save/

     init_run     :     12.01s CPU     12.11s WALL (       1 calls)
     electrons    :     68.11s CPU     68.58s WALL (       1 calls)

     Called by init_run:
     wfcinit      :      1.58s CPU      1.61s WALL (       1 calls)
     potinit      :      3.97s CPU      3.99s WALL (       1 calls)
     hinit0       :      6.40s CPU      6.44s WALL (       1 calls)

     Called by electrons:
     c_bands      :     55.23s CPU     55.42s WALL (      22 calls)
     sum_band     :      5.05s CPU      5.05s WALL (      22 calls)
     v_of_rho     :      6.80s CPU      7.08s WALL (      23 calls)
     mix_rho      :      0.94s CPU      0.94s WALL (      22 calls)

     Called by c_bands:
     init_us_2    :      0.62s CPU      0.62s WALL (      45 calls)
     regterg      :     51.98s CPU     52.17s WALL (      22 calls)

     Called by *egterg:
     rdiaghg      :      1.30s CPU      1.31s WALL (      80 calls)
     h_psi        :     36.53s CPU     36.63s WALL (      81 calls)
     g_psi        :      0.16s CPU      0.16s WALL (      58 calls)

     Called by h_psi:
     h_psi:calbec :     10.04s CPU     10.06s WALL (      81 calls)
     vloc_psi     :     16.42s CPU     16.49s WALL (      81 calls)
     add_vuspsi   :      9.96s CPU      9.96s WALL (      81 calls)

     General routines
     calbec       :     10.04s CPU     10.06s WALL (      81 calls)
     fft          :      3.10s CPU      3.11s WALL (     228 calls)
     ffts         :      0.11s CPU      0.11s WALL (      45 calls)
     fftw         :     16.23s CPU     16.28s WALL (    8542 calls)
     interpolate  :      0.40s CPU      0.40s WALL (      23 calls)

     Parallel routines

     PWSCF        :   1m20.22s CPU   1m20.85s WALL


   This run was terminated on:  20:51:22   5Sep2023            

=------------------------------------------------------------------------------=
   JOB DONE.
=------------------------------------------------------------------------------=
