
     Program PWSCF v.6.7MaX starts on 27Aug2023 at 12:19:16 

     This program is part of the open-source Quantum ESPRESSO suite
     for quantum simulation of materials; please cite
         "P. Giannozzi et al., J. Phys.:Condens. Matter 21 395502 (2009);
         "P. Giannozzi et al., J. Phys.:Condens. Matter 29 465901 (2017);
          URL http://www.quantum-espresso.org", 
     in publications or presentations arising from this work. More details at
     http://www.quantum-espresso.org/quote

     Parallel version (MPI), running on     1 processors

     MPI processes distributed on     1 nodes
     Waiting for input...
     Reading input from standard input

     Current dimensions of program PWSCF are:
     Max number of different atomic species (ntypx) = 10
     Max number of k-points (npk) =  40000
     Max angular momentum in pseudopotentials (lmaxx) =  3
     Message from routine read_pp_mesh:
     mesh size missing, using the one in header
     Message from routine read_pp_mesh:
     mesh size missing, using the one in header
     Message from routine read_pp_mesh:
     mesh size missing, using the one in header
     Message from routine read_pp_mesh:
     mesh size missing, using the one in header

     Subspace diagonalization in iterative solution of the eigenvalue problem:
     a serial algorithm will be used

     Found symmetry operation: I + (  0.0000 -0.5000  0.5000)
     This is a supercell, fractional translations are disabled

     G-vector sticks info
     --------------------
     sticks:   dense  smooth     PW     G-vecs:    dense   smooth      PW
     Sum        7033    3133    877               291743    86489   12745



     bravais-lattice index     =            8
     lattice parameter (alat)  =      19.8988  a.u.
     unit-cell volume          =    5118.8754 (a.u.)^3
     number of atoms/cell      =           64
     number of atomic types    =            4
     number of electrons       =       320.00
     number of Kohn-Sham states=          192
     kinetic-energy cutoff     =      25.0000  Ry
     charge density cutoff     =     225.0000  Ry
     scf convergence threshold =      1.0E-06
     mixing beta               =       0.7000
     number of iterations used =            8  plain     mixing
     Exchange-correlation= PBE
                           (   1   4   3   4   0   0   0)

     celldm(1)=  19.898816  celldm(2)=   0.991453  celldm(3)=   0.655271
     celldm(4)=   0.000000  celldm(5)=   0.000000  celldm(6)=   0.000000

     crystal axes: (cart. coord. in units of alat)
               a(1) = (   1.000000   0.000000   0.000000 )  
               a(2) = (   0.000000   0.991453   0.000000 )  
               a(3) = (   0.000000   0.000000   0.655271 )  

     reciprocal axes: (cart. coord. in units 2 pi/alat)
               b(1) = (  1.000000  0.000000  0.000000 )  
               b(2) = (  0.000000  1.008621  0.000000 )  
               b(3) = (  0.000000  0.000000  1.526087 )  


     PseudoPot. # 1 for K  read from file:
     /home/johnpaul/JP_QME/Dojo_Pseudo/nc-sr-05_pbe_stringent_upf/K.upf
     MD5 check sum: 0aa97b2c023445f040759afc9fdb6c80
     Pseudo is Norm-conserving + core correction, Zval =  9.0
     Generated using ONCVPSP code by D. R. Hamann
     Using radial grid of 2222 points,  6 beta functions with: 
                l(1) =   0
                l(2) =   0
                l(3) =   1
                l(4) =   1
                l(5) =   2
                l(6) =   2

     PseudoPot. # 2 for P  read from file:
     /home/johnpaul/JP_QME/Dojo_Pseudo/nc-sr-05_pbe_stringent_upf/P.upf
     MD5 check sum: e25a93595ed76be8dfbf715c9c2e8dc8
     Pseudo is Norm-conserving + core correction, Zval =  5.0
     Generated using ONCVPSP code by D. R. Hamann
     Using radial grid of 1298 points,  6 beta functions with: 
                l(1) =   0
                l(2) =   0
                l(3) =   1
                l(4) =   1
                l(5) =   2
                l(6) =   2

     PseudoPot. # 3 for O  read from file:
     /home/johnpaul/JP_QME/Dojo_Pseudo/nc-sr-05_pbe_stringent_upf/O.upf
     MD5 check sum: 9db02a5ece9d56b81b65a73f8163743d
     Pseudo is Norm-conserving + core correction, Zval =  6.0
     Generated using ONCVPSP code by D. R. Hamann
     Using radial grid of  936 points,  5 beta functions with: 
                l(1) =   0
                l(2) =   0
                l(3) =   1
                l(4) =   1
                l(5) =   2

     PseudoPot. # 4 for H  read from file:
     /home/johnpaul/JP_QME/Dojo_Pseudo/nc-sr-05_pbe_stringent_upf/H.upf
     MD5 check sum: e96aa7e3e4a958db16958554ea960e2a
     Pseudo is Norm-conserving, Zval =  1.0
     Generated using ONCVPSP code by D. R. Hamann
     Using radial grid of 1166 points,  3 beta functions with: 
                l(1) =   0
                l(2) =   0
                l(3) =   1

     atomic species   valence    mass     pseudopotential
        K1+            9.00    39.09830     K ( 1.00)
        P5+            5.00    30.97376     P ( 1.00)
        O2-            6.00    15.99940     O ( 1.00)
        H1+            1.00     1.00794     H ( 1.00)

      2 Sym. Ops. (no inversion) found



   Cartesian axes

     site n.     atom                  positions (alat units)
         1           K1+ tau(   1) = (   0.0000000   0.0000000   0.3354986  )
         2           K1+ tau(   2) = (   0.2500000   0.2478632   0.1716809  )
         3           K1+ tau(   3) = (   0.0000000   0.4957265   0.0078632  )
         4           K1+ tau(   4) = (   0.5000000   0.0000000   0.0078632  )
         5           K1+ tau(   5) = (   0.5000000   0.4957265   0.3354986  )
         6           K1+ tau(   6) = (   0.2500000   0.7435897   0.4993162  )
         7           K1+ tau(   7) = (   0.7500000   0.2478632   0.4993162  )
         8           K1+ tau(   8) = (   0.7500000   0.7435897   0.1716809  )
         9           P5+ tau(   9) = (   0.0000000   0.0000000   0.0000000  )
        10           P5+ tau(  10) = (   0.2500000   0.2478632   0.4914530  )
        11           P5+ tau(  11) = (   0.0000000   0.4957265   0.3276353  )
        12           P5+ tau(  12) = (   0.5000000   0.0000000   0.3276353  )
        13           P5+ tau(  13) = (   0.5000000   0.4957265   0.0000000  )
        14           P5+ tau(  14) = (   0.2500000   0.7435897   0.1638177  )
        15           P5+ tau(  15) = (   0.7500000   0.2478632   0.1638177  )
        16           P5+ tau(  16) = (   0.7500000   0.7435897   0.4914530  )
        17           O2- tau(  17) = (   0.1160000   0.0342051   0.0858405  )
        18           O2- tau(  18) = (   0.8840000   0.9572479   0.0858405  )
        19           O2- tau(  19) = (   0.1340000   0.2820684   0.5772934  )
        20           O2- tau(  20) = (   0.3660000   0.2136581   0.5772934  )
        21           O2- tau(  21) = (   0.1160000   0.5299316   0.4134758  )
        22           O2- tau(  22) = (   0.6160000   0.0342051   0.4134758  )
        23           O2- tau(  23) = (   0.6160000   0.5299316   0.0858405  )
        24           O2- tau(  24) = (   0.8840000   0.4615214   0.4134758  )
        25           O2- tau(  25) = (   0.3840000   0.9572479   0.4134758  )
        26           O2- tau(  26) = (   0.3840000   0.4615214   0.0858405  )
        27           O2- tau(  27) = (   0.1340000   0.7777949   0.2496581  )
        28           O2- tau(  28) = (   0.6340000   0.2820684   0.2496581  )
        29           O2- tau(  29) = (   0.6340000   0.7777949   0.5772934  )
        30           O2- tau(  30) = (   0.3660000   0.7093846   0.2496581  )
        31           O2- tau(  31) = (   0.8660000   0.2136581   0.2496581  )
        32           O2- tau(  32) = (   0.8660000   0.7093846   0.5772934  )
        33           O2- tau(  33) = (   0.9655000   0.1150085   0.5743447  )
        34           O2- tau(  34) = (   0.0345000   0.8764444   0.5743447  )
        35           O2- tau(  35) = (   0.2845000   0.3628718   0.4105271  )
        36           O2- tau(  36) = (   0.2155000   0.1328547   0.4105271  )
        37           O2- tau(  37) = (   0.9655000   0.6107350   0.2467094  )
        38           O2- tau(  38) = (   0.4655000   0.1150085   0.2467094  )
        39           O2- tau(  39) = (   0.4655000   0.6107350   0.5743447  )
        40           O2- tau(  40) = (   0.0345000   0.3807179   0.2467094  )
        41           O2- tau(  41) = (   0.5345000   0.8764444   0.2467094  )
        42           O2- tau(  42) = (   0.5345000   0.3807179   0.5743447  )
        43           O2- tau(  43) = (   0.2845000   0.8585983   0.0828917  )
        44           O2- tau(  44) = (   0.7845000   0.3628718   0.0828917  )
        45           O2- tau(  45) = (   0.7845000   0.8585983   0.4105271  )
        46           O2- tau(  46) = (   0.2155000   0.6285812   0.0828917  )
        47           O2- tau(  47) = (   0.7155000   0.1328547   0.0828917  )
        48           O2- tau(  48) = (   0.7155000   0.6285812   0.4105271  )
        49           H1+ tau(  49) = (   0.1880000   0.9542735   0.0874786  )
        50           H1+ tau(  50) = (   0.8120000   0.0371795   0.0874786  )
        51           H1+ tau(  51) = (   0.0620000   0.2106838   0.5789316  )
        52           H1+ tau(  52) = (   0.4380000   0.2850427   0.5789316  )
        53           H1+ tau(  53) = (   0.1880000   0.4585470   0.4151140  )
        54           H1+ tau(  54) = (   0.6880000   0.9542735   0.4151140  )
        55           H1+ tau(  55) = (   0.6880000   0.4585470   0.0874786  )
        56           H1+ tau(  56) = (   0.8120000   0.5329060   0.4151140  )
        57           H1+ tau(  57) = (   0.3120000   0.0371795   0.4151140  )
        58           H1+ tau(  58) = (   0.3120000   0.5329060   0.0874786  )
        59           H1+ tau(  59) = (   0.0620000   0.7064103   0.2512963  )
        60           H1+ tau(  60) = (   0.5620000   0.2106838   0.2512963  )
        61           H1+ tau(  61) = (   0.5620000   0.7064103   0.5789316  )
        62           H1+ tau(  62) = (   0.4380000   0.7807692   0.2512963  )
        63           H1+ tau(  63) = (   0.9380000   0.2850427   0.2512963  )
        64           H1+ tau(  64) = (   0.9380000   0.7807692   0.5789316  )

     number of k points=     4  Gaussian smearing, width (Ry)=  0.0100
                       cart. coord. in units 2pi/alat
        k(    1) = (   0.0000000   0.0000000   0.0000000), wk =   0.5000000
        k(    2) = (   0.0000000   0.0000000  -0.7630435), wk =   0.5000000
        k(    3) = (   0.0000000  -0.5043103   0.0000000), wk =   0.5000000
        k(    4) = (   0.0000000  -0.5043103  -0.7630435), wk =   0.5000000

     Dense  grid:   291743 G-vectors     FFT dimensions: (  96,  96,  64)

     Smooth grid:    86489 G-vectors     FFT dimensions: (  64,  64,  45)

     Estimated max dynamical RAM per process >     614.97 MB

     Check: negative core charge=   -0.000073

     Initial potential from superposition of free atoms

     starting charge  319.84471, renormalised to  320.00000
     Starting wfcs are  216 randomized atomic wfcs

     total cpu time spent up to now is       25.2 secs

     Self-consistent Calculation

     iteration #  1     ecut=    25.00 Ry     beta= 0.70
     Davidson diagonalization with overlap
     ethr =  1.00E-02,  avg # of iterations =  5.0

     total cpu time spent up to now is       97.4 secs

     total energy              =   -1637.71565052 Ry
     estimated scf accuracy    <       3.72494002 Ry

     iteration #  2     ecut=    25.00 Ry     beta= 0.70
     Davidson diagonalization with overlap
     ethr =  1.16E-03,  avg # of iterations =  2.0

     total cpu time spent up to now is      141.9 secs

     total energy              =   -1637.92291847 Ry
     estimated scf accuracy    <       0.35777759 Ry

     iteration #  3     ecut=    25.00 Ry     beta= 0.70
     Davidson diagonalization with overlap
     ethr =  1.12E-04,  avg # of iterations = 11.0

     total cpu time spent up to now is      213.9 secs

     total energy              =   -1637.96363538 Ry
     estimated scf accuracy    <       0.08509276 Ry

     iteration #  4     ecut=    25.00 Ry     beta= 0.70
     Davidson diagonalization with overlap
     ethr =  2.66E-05,  avg # of iterations = 10.0

     total cpu time spent up to now is      279.5 secs

     total energy              =   -1637.98389796 Ry
     estimated scf accuracy    <       0.00285511 Ry

     iteration #  5     ecut=    25.00 Ry     beta= 0.70
     Davidson diagonalization with overlap
     ethr =  8.92E-07,  avg # of iterations =  7.5

     total cpu time spent up to now is      352.0 secs

     total energy              =   -1637.98457815 Ry
     estimated scf accuracy    <       0.00013887 Ry

     iteration #  6     ecut=    25.00 Ry     beta= 0.70
     Davidson diagonalization with overlap
     ethr =  4.34E-08,  avg # of iterations =  2.8

     total cpu time spent up to now is      408.6 secs

     total energy              =   -1637.98461330 Ry
     estimated scf accuracy    <       0.00000454 Ry

     iteration #  7     ecut=    25.00 Ry     beta= 0.70
     Davidson diagonalization with overlap
     ethr =  1.42E-09,  avg # of iterations =  4.0

     total cpu time spent up to now is      473.1 secs

     total energy              =   -1637.98461496 Ry
     estimated scf accuracy    <       0.00000143 Ry

     iteration #  8     ecut=    25.00 Ry     beta= 0.70
     Davidson diagonalization with overlap
     ethr =  4.48E-10,  avg # of iterations =  2.0

     total cpu time spent up to now is      528.8 secs

     End of self-consistent calculation

          k = 0.0000 0.0000 0.0000 ( 10821 PWs)   bands (ev):

   -23.2988 -23.2812 -23.2812 -23.2721 -23.2721 -23.2714 -23.2209 -23.2209
   -19.9523 -19.7305 -19.7305 -19.7295 -19.7294 -19.7020 -19.7020 -19.4118
   -18.5066 -18.4469 -18.4469 -18.4368 -18.4368 -18.4048 -18.4048 -18.3798
   -17.6864 -17.4637 -17.4637 -17.4035 -17.4035 -17.4013 -17.4013 -17.2152
   -16.9748 -16.9257 -16.9257 -16.8948 -16.8948 -16.8882 -16.8882 -16.8664
    -8.0157  -8.0157  -8.0129  -8.0129  -8.0110  -8.0063  -8.0063  -8.0036
    -7.9703  -7.9703  -7.9635  -7.9504  -7.9504  -7.9162  -7.9137  -7.9137
    -7.9061  -7.9061  -7.9024  -7.9007  -7.9007  -7.8878  -7.8878  -7.8662
    -6.6144  -6.1471  -6.1471  -6.1048  -6.1048  -6.0673  -6.0673  -5.6407
    -4.5084  -4.4930  -4.4930  -4.3710  -4.3709  -4.1860  -4.1860  -4.0360
    -3.8859  -2.8958  -2.8957  -2.7514  -2.7514  -2.6965  -2.6965  -2.3238
    -1.9444  -1.9444  -1.8403  -1.8403  -1.8173  -1.8173  -1.7174  -1.7063
    -1.3717  -1.0389  -1.0389  -0.8893  -0.8893  -0.8237  -0.7815  -0.7815
    -0.5357  -0.5357  -0.5047  -0.5047  -0.3449  -0.2916  -0.2916  -0.1026
     0.2639   0.3766   0.3766   0.6021   0.6021   0.6107   0.6107   0.9047
     0.9047   1.0441   1.1052   1.1409   1.1409   1.1575   1.2156   1.4478
     1.4478   1.4708   1.4708   1.5044   1.5044   1.5060   1.5378   1.5378
     2.1852   2.1936   2.1937   2.3273   2.3273   2.4142   2.4657   2.4657
     2.4724   2.4724   2.4788   2.4798   2.4798   2.5377   2.6095   2.6096
     2.8290   2.8290   2.8442   2.9355   2.9355   3.0298   3.0298   3.0362
     7.6971  10.0690  10.0690  10.1333  10.1333  10.4818  10.4819  10.9594
    11.0398  11.0398  11.2474  11.2474  11.3077  11.3077  11.4132  11.4133
    11.5559  11.5691  11.9552  11.9553  12.0401  12.0401  12.0742  12.0742
    12.1747  12.2530  12.2531  12.3293  12.3530  12.3531  12.4874  12.5263

          k = 0.0000 0.0000-0.7630 ( 10796 PWs)   bands (ev):

   -23.2756 -23.2756 -23.2532 -23.2532 -23.2508 -23.2507 -23.2507 -23.2507
   -19.8968 -19.8968 -19.7321 -19.7320 -19.7320 -19.7320 -19.5115 -19.5114
   -18.4887 -18.4887 -18.4147 -18.4147 -18.4146 -18.4146 -18.4037 -18.4037
   -17.5895 -17.5895 -17.4210 -17.4210 -17.4210 -17.4209 -17.2516 -17.2515
   -16.9428 -16.9427 -16.8996 -16.8996 -16.8995 -16.8995 -16.8743 -16.8742
    -8.0274  -8.0274  -8.0274  -8.0274  -8.0239  -8.0238  -8.0161  -8.0161
    -7.9566  -7.9566  -7.9566  -7.9566  -7.9467  -7.9467  -7.9088  -7.9088
    -7.9046  -7.9046  -7.9046  -7.9045  -7.8990  -7.8989  -7.8894  -7.8894
    -6.4506  -6.4506  -6.0579  -6.0578  -6.0578  -6.0578  -5.8574  -5.8573
    -4.4087  -4.4087  -4.4035  -4.4035  -4.4035  -4.4035  -4.0586  -4.0586
    -3.5253  -3.5253  -2.7399  -2.7399  -2.7399  -2.7399  -2.1389  -2.1389
    -2.0288  -2.0287  -1.9069  -1.9069  -1.9069  -1.9069  -1.6958  -1.6958
    -1.2895  -1.2895  -0.9084  -0.9084  -0.9084  -0.9084  -0.7730  -0.7729
    -0.4787  -0.4787  -0.3976  -0.3976  -0.3975  -0.3975  -0.2687  -0.2687
     0.4445   0.4446   0.5645   0.5645   0.7376   0.7376   0.7377   0.7377
     1.0055   1.0055   1.0055   1.0055   1.2832   1.2833   1.3332   1.3333
     1.3442   1.3442   1.5257   1.5257   1.5258   1.5258   1.5473   1.5473
     2.2170   2.2170   2.2898   2.2898   2.2898   2.2898   2.4314   2.4314
     2.4837   2.4837   2.5927   2.5927   2.5927   2.5927   2.6179   2.6180
     2.6654   2.6655   2.9674   2.9674   2.9674   2.9674   2.9950   2.9951
     9.0734   9.0734  10.4660  10.4660  10.4660  10.4661  10.7572  10.7572
    10.7572  10.7572  10.8680  10.8680  11.0323  11.0323  11.0944  11.0944
    11.6502  11.6502  11.8370  11.8370  11.8370  11.8370  12.2217  12.2217
    12.2217  12.2218  12.2826  12.2826  12.3158  12.3158  12.4062  12.4062

          k = 0.0000-0.5043 0.0000 ( 10800 PWs)   bands (ev):

   -23.2690 -23.2690 -23.2616 -23.2616 -23.2520 -23.2520 -23.2520 -23.2519
   -19.8889 -19.8889 -19.7166 -19.7165 -19.7165 -19.7165 -19.5149 -19.5148
   -18.4806 -18.4806 -18.4283 -18.4282 -18.4282 -18.4282 -18.3891 -18.3890
   -17.5921 -17.5920 -17.4342 -17.4342 -17.4342 -17.4341 -17.2552 -17.2552
   -16.9554 -16.9553 -16.8955 -16.8955 -16.8955 -16.8954 -16.8830 -16.8830
    -8.0174  -8.0174  -8.0174  -8.0174  -8.0118  -8.0118  -7.9949  -7.9949
    -7.9617  -7.9617  -7.9569  -7.9569  -7.9200  -7.9200  -7.9199  -7.9199
    -7.9100  -7.9100  -7.9068  -7.9068  -7.9067  -7.9067  -7.8759  -7.8758
    -6.4283  -6.4283  -6.1129  -6.1128  -6.1128  -6.1128  -5.7842  -5.7841
    -4.4963  -4.4962  -4.3465  -4.3464  -4.3464  -4.3463  -4.0962  -4.0961
    -3.5026  -3.5025  -2.6952  -2.6952  -2.6951  -2.6951  -2.4841  -2.4841
    -1.9149  -1.9148  -1.9148  -1.9148  -1.7975  -1.7975  -1.7808  -1.7807
    -1.0925  -1.0925  -0.9768  -0.9768  -0.9767  -0.9767  -0.6660  -0.6660
    -0.4438  -0.4438  -0.3947  -0.3947  -0.3946  -0.3946  -0.2569  -0.2568
     0.3547   0.3548   0.4589   0.4590   0.4590   0.4591   1.0061   1.0062
     1.0255   1.0255   1.0391   1.0392   1.3160   1.3160   1.3160   1.3160
     1.3981   1.3981   1.4767   1.4767   1.4880   1.4881   1.4881   1.4881
     2.2249   2.2250   2.2823   2.2823   2.2823   2.2823   2.4833   2.4834
     2.5050   2.5050   2.5051   2.5051   2.5259   2.5259   2.5970   2.5970
     2.8058   2.8058   2.9640   2.9640   2.9640   2.9641   3.0065   3.0066
     8.4604   8.4605  10.3114  10.3114  10.3114  10.3115  10.8980  10.8981
    11.1245  11.1246  11.1246  11.1246  11.5269  11.5270  11.5900  11.5900
    11.6345  11.6345  11.6345  11.6345  11.8160  11.8160  11.9265  11.9266
    12.1144  12.1145  12.1145  12.1145  12.5852  12.5855  12.6522  12.6524

          k = 0.0000-0.5043-0.7630 ( 10804 PWs)   bands (ev):

   -23.2607 -23.2607 -23.2606 -23.2606 -23.2590 -23.2590 -23.2590 -23.2589
   -19.8505 -19.8505 -19.8505 -19.8504 -19.5878 -19.5878 -19.5877 -19.5877
   -18.4598 -18.4597 -18.4597 -18.4597 -18.3975 -18.3974 -18.3974 -18.3974
   -17.5454 -17.5453 -17.5453 -17.5453 -17.3006 -17.3006 -17.3006 -17.3006
   -16.9270 -16.9270 -16.9270 -16.9269 -16.8842 -16.8841 -16.8841 -16.8841
    -8.0365  -8.0365  -8.0364  -8.0364  -8.0159  -8.0159  -8.0159  -8.0158
    -7.9524  -7.9524  -7.9523  -7.9523  -7.9222  -7.9222  -7.9221  -7.9221
    -7.9066  -7.9066  -7.9066  -7.9066  -7.8984  -7.8984  -7.8984  -7.8983
    -6.3166  -6.3165  -6.3165  -6.3165  -5.9031  -5.9031  -5.9030  -5.9030
    -4.4839  -4.4839  -4.4838  -4.4838  -4.1917  -4.1917  -4.1916  -4.1916
    -3.2501  -3.2501  -3.2501  -3.2500  -2.3510  -2.3510  -2.3510  -2.3509
    -1.9554  -1.9554  -1.9554  -1.9554  -1.7854  -1.7854  -1.7854  -1.7853
    -1.1244  -1.1244  -1.1243  -1.1243  -0.7615  -0.7614  -0.7614  -0.7614
    -0.5026  -0.5026  -0.5026  -0.5025  -0.3126  -0.3126  -0.3126  -0.3125
     0.5637   0.5637   0.5638   0.5638   0.6517   0.6518   0.6518   0.6518
     1.1049   1.1049   1.1049   1.1049   1.1993   1.1993   1.1993   1.1993
     1.4508   1.4508   1.4508   1.4508   1.5210   1.5211   1.5211   1.5211
     2.2176   2.2176   2.2177   2.2177   2.4455   2.4455   2.4456   2.4456
     2.5211   2.5211   2.5211   2.5211   2.5847   2.5847   2.5847   2.5847
     2.7529   2.7529   2.7529   2.7529   3.0416   3.0417   3.0417   3.0417
     9.5493   9.5494   9.5494   9.5494  10.8116  10.8116  10.8116  10.8117
    10.8345  10.8345  10.8345  10.8346  11.0569  11.0569  11.0569  11.0569
    11.7291  11.7291  11.7291  11.7291  11.9672  11.9672  11.9672  11.9672
    12.0202  12.0203  12.0203  12.0203  12.5466  12.5466  12.5466  12.5466

     the Fermi energy is     3.8006 ev

!    total energy              =   -1637.98461529 Ry
     estimated scf accuracy    <       0.00000004 Ry
     smearing contrib. (-TS)   =      -0.00000000 Ry
     internal energy E=F+TS    =   -1637.98461529 Ry

     The total energy is F=E-TS. E is the sum of the following terms:
     one-electron contribution =    -671.79331172 Ry
     hartree contribution      =     481.63851490 Ry
     xc contribution           =    -410.84344547 Ry
     ewald contribution        =   -1036.98637300 Ry

     convergence has been achieved in   8 iterations

     Writing output data file ./outdir/KDP.save/

     init_run     :     24.81s CPU     25.10s WALL (       1 calls)
     electrons    :    502.45s CPU    503.64s WALL (       1 calls)

     Called by init_run:
     wfcinit      :     19.49s CPU     19.64s WALL (       1 calls)
     potinit      :      2.41s CPU      2.45s WALL (       1 calls)
     hinit0       :      2.86s CPU      2.92s WALL (       1 calls)

     Called by electrons:
     c_bands      :    488.97s CPU    490.05s WALL (       8 calls)
     sum_band     :     11.33s CPU     11.33s WALL (       8 calls)
     v_of_rho     :      2.12s CPU      2.27s WALL (       9 calls)
     mix_rho      :      0.20s CPU      0.20s WALL (       8 calls)

     Called by c_bands:
     init_us_2    :      1.66s CPU      1.70s WALL (      68 calls)
     cegterg      :    478.74s CPU    479.77s WALL (      32 calls)

     Called by *egterg:
     cdiaghg      :     24.15s CPU     24.16s WALL (     209 calls)
     h_psi        :    284.73s CPU    285.45s WALL (     213 calls)
     g_psi        :      0.76s CPU      0.76s WALL (     177 calls)

     Called by h_psi:
     h_psi:calbec :    115.28s CPU    115.41s WALL (     213 calls)
     vloc_psi     :     60.39s CPU     60.57s WALL (     213 calls)
     add_vuspsi   :    108.69s CPU    108.74s WALL (     213 calls)

     General routines
     calbec       :    115.28s CPU    115.41s WALL (     213 calls)
     fft          :      0.76s CPU      0.79s WALL (     106 calls)
     ffts         :      0.03s CPU      0.03s WALL (      17 calls)
     fftw         :     60.59s CPU     60.77s WALL (   42526 calls)
     interpolate  :      0.10s CPU      0.10s WALL (       9 calls)

     Parallel routines

     PWSCF        :   8m47.35s CPU   8m48.97s WALL


   This run was terminated on:  12:28: 5  27Aug2023            

=------------------------------------------------------------------------------=
   JOB DONE.
=------------------------------------------------------------------------------=
