
     Program PWSCF v.6.7MaX starts on 13Aug2023 at 17:55:19 

     This program is part of the open-source Quantum ESPRESSO suite
     for quantum simulation of materials; please cite
         "P. Giannozzi et al., J. Phys.:Condens. Matter 21 395502 (2009);
         "P. Giannozzi et al., J. Phys.:Condens. Matter 29 465901 (2017);
          URL http://www.quantum-espresso.org", 
     in publications or presentations arising from this work. More details at
     http://www.quantum-espresso.org/quote

     Parallel version (MPI), running on     1 processors

     MPI processes distributed on     1 nodes
     Waiting for input...
     Reading input from standard input

     Current dimensions of program PWSCF are:
     Max number of different atomic species (ntypx) = 10
     Max number of k-points (npk) =  40000
     Max angular momentum in pseudopotentials (lmaxx) =  3
     Message from routine read_pp_mesh:
     mesh size missing, using the one in header
     Message from routine read_pp_mesh:
     mesh size missing, using the one in header

     gamma-point specific algorithms are used

     Subspace diagonalization in iterative solution of the eigenvalue problem:
     a serial algorithm will be used


     G-vector sticks info
     --------------------
     sticks:   dense  smooth     PW     G-vecs:    dense   smooth      PW
     Sum       26085   13053   3265              2629107   929743  116125



     bravais-lattice index     =            6
     lattice parameter (alat)  =      32.0000  a.u.
     unit-cell volume          =   27197.4400 (a.u.)^3
     number of atoms/cell      =           12
     number of atomic types    =            2
     number of electrons       =        30.00
     number of Kohn-Sham states=           15
     kinetic-energy cutoff     =      40.0000  Ry
     charge density cutoff     =     320.0000  Ry
     scf convergence threshold =      1.0E-10
     mixing beta               =       0.7000
     number of iterations used =            8  plain     mixing
     Exchange-correlation= PBE
                           (   1   4   3   4   0   0   0)

     celldm(1)=  32.000000  celldm(2)=   0.000000  celldm(3)=   0.830000
     celldm(4)=   0.000000  celldm(5)=   0.000000  celldm(6)=   0.000000

     crystal axes: (cart. coord. in units of alat)
               a(1) = (   1.000000   0.000000   0.000000 )  
               a(2) = (   0.000000   1.000000   0.000000 )  
               a(3) = (   0.000000   0.000000   0.830000 )  

     reciprocal axes: (cart. coord. in units 2 pi/alat)
               b(1) = (  1.000000  0.000000  0.000000 )  
               b(2) = (  0.000000  1.000000  0.000000 )  
               b(3) = (  0.000000  0.000000  1.204819 )  


     PseudoPot. # 1 for C  read from file:
     /home/johnpaul/JP_QME/Dojo_Pseudo/nc-sr-05_pbe_stringent_upf/C.upf
     MD5 check sum: 34a24e64c0a39f27c6c36b90a16ac686
     Pseudo is Norm-conserving + core correction, Zval =  4.0
     Generated using ONCVPSP code by D. R. Hamann
     Using radial grid of 1248 points,  4 beta functions with: 
                l(1) =   0
                l(2) =   0
                l(3) =   1
                l(4) =   1

     PseudoPot. # 2 for H  read from file:
     /home/johnpaul/JP_QME/Dojo_Pseudo/nc-sr-05_pbe_stringent_upf/H.upf
     MD5 check sum: e96aa7e3e4a958db16958554ea960e2a
     Pseudo is Norm-conserving, Zval =  1.0
     Generated using ONCVPSP code by D. R. Hamann
     Using radial grid of 1166 points,  3 beta functions with: 
                l(1) =   0
                l(2) =   0
                l(3) =   1

     atomic species   valence    mass     pseudopotential
        C              4.00    12.01070     C ( 1.00)
        H              1.00     1.00784     H ( 1.00)

     No symmetry found



   Cartesian axes

     site n.     atom                  positions (alat units)
         1           C   tau(   1) = (   0.3327634   0.3733372   0.2952697  )
         2           C   tau(   2) = (   0.4043485   0.4972565   0.2952697  )
         3           C   tau(   3) = (   0.4759200   0.4559443   0.2952697  )
         4           C   tau(   4) = (   0.4759147   0.3733258   0.2952697  )
         5           C   tau(   5) = (   0.4043360   0.3320243   0.2952697  )
         6           C   tau(   6) = (   0.3327698   0.4559561   0.2952697  )
         7           H   tau(   7) = (   0.4043556   0.5624374   0.2952697  )
         8           H   tau(   8) = (   0.5323692   0.4885290   0.2952697  )
         9           H   tau(   9) = (   0.5323614   0.3407364   0.2952697  )
        10           H   tau(  10) = (   0.4043317   0.2668437   0.2952697  )
        11           H   tau(  11) = (   0.2763126   0.3407557   0.2952697  )
        12           H   tau(  12) = (   0.2763252   0.4885497   0.2952697  )

     number of k points=     1
                       cart. coord. in units 2pi/alat
        k(    1) = (   0.0000000   0.0000000   0.0000000), wk =   2.0000000

     Dense  grid:  1314554 G-vectors     FFT dimensions: ( 192, 192, 160)

     Smooth grid:   464872 G-vectors     FFT dimensions: ( 135, 135, 108)

     Estimated max dynamical RAM per process >       1.10 GB

     Initial potential from superposition of free atoms

     starting charge   29.99968, renormalised to   30.00000

     negative rho (up, down):  4.822E-04 0.000E+00
     Starting wfcs are   30 randomized atomic wfcs

     total cpu time spent up to now is       16.8 secs

     Self-consistent Calculation

     iteration #  1     ecut=    40.00 Ry     beta= 0.70
     Davidson diagonalization with overlap
     ethr =  1.00E-02,  avg # of iterations =  2.0

     negative rho (up, down):  4.208E-05 0.000E+00

     total cpu time spent up to now is       24.1 secs

     total energy              =     -78.72687102 Ry
     estimated scf accuracy    <       1.23673019 Ry

     iteration #  2     ecut=    40.00 Ry     beta= 0.70
     Davidson diagonalization with overlap
     ethr =  4.12E-03,  avg # of iterations =  2.0

     negative rho (up, down):  2.534E-04 0.000E+00

     total cpu time spent up to now is       31.0 secs

     total energy              =     -78.98523393 Ry
     estimated scf accuracy    <       0.24886043 Ry

     iteration #  3     ecut=    40.00 Ry     beta= 0.70
     Davidson diagonalization with overlap
     ethr =  8.30E-04,  avg # of iterations =  2.0

     total cpu time spent up to now is       37.9 secs

     total energy              =     -79.03222903 Ry
     estimated scf accuracy    <       0.00884820 Ry

     iteration #  4     ecut=    40.00 Ry     beta= 0.70
     Davidson diagonalization with overlap
     ethr =  2.95E-05,  avg # of iterations =  2.0

     total cpu time spent up to now is       44.6 secs

     total energy              =     -79.03386399 Ry
     estimated scf accuracy    <       0.00039263 Ry

     iteration #  5     ecut=    40.00 Ry     beta= 0.70
     Davidson diagonalization with overlap
     ethr =  1.31E-06,  avg # of iterations =  2.0

     negative rho (up, down):  1.222E-08 0.000E+00

     total cpu time spent up to now is       51.7 secs

     total energy              =     -79.03393035 Ry
     estimated scf accuracy    <       0.00003957 Ry

     iteration #  6     ecut=    40.00 Ry     beta= 0.70
     Davidson diagonalization with overlap
     ethr =  1.32E-07,  avg # of iterations =  2.0

     total cpu time spent up to now is       59.0 secs

     total energy              =     -79.03394000 Ry
     estimated scf accuracy    <       0.00000676 Ry

     iteration #  7     ecut=    40.00 Ry     beta= 0.70
     Davidson diagonalization with overlap
     ethr =  2.25E-08,  avg # of iterations =  2.0

     total cpu time spent up to now is       66.2 secs

     total energy              =     -79.03394081 Ry
     estimated scf accuracy    <       0.00000033 Ry

     iteration #  8     ecut=    40.00 Ry     beta= 0.70
     Davidson diagonalization with overlap
     ethr =  1.09E-09,  avg # of iterations =  3.0

     total cpu time spent up to now is       75.0 secs

     total energy              =     -79.03394099 Ry
     estimated scf accuracy    <       0.00000011 Ry

     iteration #  9     ecut=    40.00 Ry     beta= 0.70
     Davidson diagonalization with overlap
     ethr =  3.75E-10,  avg # of iterations =  2.0

     total cpu time spent up to now is       81.8 secs

     total energy              =     -79.03394100 Ry
     estimated scf accuracy    <          1.0E-09 Ry

     iteration # 10     ecut=    40.00 Ry     beta= 0.70
     Davidson diagonalization with overlap
     ethr =  3.43E-12,  avg # of iterations =  6.0

     total cpu time spent up to now is       90.3 secs

     total energy              =     -79.03394101 Ry
     estimated scf accuracy    <          5.6E-09 Ry

     iteration # 11     ecut=    40.00 Ry     beta= 0.70
     Davidson diagonalization with overlap
     ethr =  3.43E-12,  avg # of iterations =  3.0

     total cpu time spent up to now is       97.2 secs

     End of self-consistent calculation

          k = 0.0000 0.0000 0.0000 ( 58063 PWs)   bands (ev):

   -21.1403 -18.3369 -18.3333 -14.6629 -14.6613 -12.6458 -10.9625 -10.7057
   -10.0041  -9.9992  -8.8970  -8.0085  -8.0080  -6.1629  -6.1600

     highest occupied level (ev):    -6.1600

!    total energy              =     -79.03394101 Ry
     estimated scf accuracy    <          6.7E-11 Ry

     The total energy is the sum of the following terms:
     one-electron contribution =    -350.03130619 Ry
     hartree contribution      =     178.49989417 Ry
     xc contribution           =     -29.65476335 Ry
     ewald contribution        =     122.15223437 Ry

     convergence has been achieved in  11 iterations

     Writing output data file ./outdir/C6H6.save/

     init_run     :     16.25s CPU     16.69s WALL (       1 calls)
     electrons    :     78.40s CPU     80.51s WALL (       1 calls)

     Called by init_run:
     wfcinit      :      1.55s CPU      1.60s WALL (       1 calls)
     potinit      :      7.71s CPU      7.97s WALL (       1 calls)
     hinit0       :      6.24s CPU      6.33s WALL (       1 calls)

     Called by electrons:
     c_bands      :     29.04s CPU     29.10s WALL (      11 calls)
     sum_band     :      8.22s CPU      8.23s WALL (      11 calls)
     v_of_rho     :     32.87s CPU     35.02s WALL (      12 calls)
     mix_rho      :      7.22s CPU      7.25s WALL (      11 calls)

     Called by c_bands:
     init_us_2    :      0.50s CPU      0.51s WALL (      23 calls)
     regterg      :     27.80s CPU     27.86s WALL (      11 calls)

     Called by *egterg:
     rdiaghg      :      0.01s CPU      0.02s WALL (      39 calls)
     h_psi        :     25.55s CPU     25.60s WALL (      40 calls)
     g_psi        :      0.13s CPU      0.14s WALL (      28 calls)

     Called by h_psi:
     h_psi:calbec :      2.06s CPU      2.07s WALL (      40 calls)
     vloc_psi     :     21.76s CPU     21.80s WALL (      40 calls)
     add_vuspsi   :      1.64s CPU      1.65s WALL (      40 calls)

     General routines
     calbec       :      2.06s CPU      2.07s WALL (      40 calls)
     fft          :     32.84s CPU     32.89s WALL (     118 calls)
     ffts         :      0.98s CPU      0.98s WALL (      23 calls)
     fftw         :     21.85s CPU     21.88s WALL (     666 calls)
     interpolate  :      3.87s CPU      3.90s WALL (      12 calls)

     Parallel routines

     PWSCF        :   1m34.73s CPU   1m37.36s WALL


   This run was terminated on:  17:56:57  13Aug2023            

=------------------------------------------------------------------------------=
   JOB DONE.
=------------------------------------------------------------------------------=
