
     Program PWSCF v.6.7MaX starts on 25Aug2023 at 21:28:20 

     This program is part of the open-source Quantum ESPRESSO suite
     for quantum simulation of materials; please cite
         "P. Giannozzi et al., J. Phys.:Condens. Matter 21 395502 (2009);
         "P. Giannozzi et al., J. Phys.:Condens. Matter 29 465901 (2017);
          URL http://www.quantum-espresso.org", 
     in publications or presentations arising from this work. More details at
     http://www.quantum-espresso.org/quote

     Parallel version (MPI), running on     1 processors

     MPI processes distributed on     1 nodes
     Waiting for input...
     Reading input from standard input
Warning: card &CELL ignored
Warning: card / ignored

     Current dimensions of program PWSCF are:
     Max number of different atomic species (ntypx) = 10
     Max number of k-points (npk) =  40000
     Max angular momentum in pseudopotentials (lmaxx) =  3
     Message from routine read_pp_mesh:
     mesh size missing, using the one in header
     Message from routine read_pp_mesh:
     mesh size missing, using the one in header
     Message from routine read_pp_mesh:
     mesh size missing, using the one in header
     Message from routine read_pp_mesh:
     mesh size missing, using the one in header

     Subspace diagonalization in iterative solution of the eigenvalue problem:
     a serial algorithm will be used

     Found symmetry operation: I + (  0.0000 -0.5000  0.5000)
     This is a supercell, fractional translations are disabled

     G-vector sticks info
     --------------------
     sticks:   dense  smooth     PW     G-vecs:    dense   smooth      PW
     Sum        7033    3133    861               291743    86489   12473



     bravais-lattice index     =            8
     lattice parameter (alat)  =      19.8988  a.u.
     unit-cell volume          =    5118.8754 (a.u.)^3
     number of atoms/cell      =           64
     number of atomic types    =            4
     number of electrons       =       320.00
     number of Kohn-Sham states=          192
     kinetic-energy cutoff     =      25.0000  Ry
     charge density cutoff     =     225.0000  Ry
     scf convergence threshold =      1.0E-06
     mixing beta               =       0.7000
     number of iterations used =            8  plain     mixing
     energy convergence thresh.=      1.0E-05
     force convergence thresh. =      1.0E-04
     Exchange-correlation= PBE
                           (   1   4   3   4   0   0   0)
     nstep                     =           50


     celldm(1)=  19.898816  celldm(2)=   0.991453  celldm(3)=   0.655271
     celldm(4)=   0.000000  celldm(5)=   0.000000  celldm(6)=   0.000000

     crystal axes: (cart. coord. in units of alat)
               a(1) = (   1.000000   0.000000   0.000000 )  
               a(2) = (   0.000000   0.991453   0.000000 )  
               a(3) = (   0.000000   0.000000   0.655271 )  

     reciprocal axes: (cart. coord. in units 2 pi/alat)
               b(1) = (  1.000000  0.000000  0.000000 )  
               b(2) = (  0.000000  1.008621  0.000000 )  
               b(3) = (  0.000000  0.000000  1.526087 )  


     PseudoPot. # 1 for K  read from file:
     /home/johnpaul/JP_QME/Dojo_Pseudo/nc-sr-05_pbe_stringent_upf/K.upf
     MD5 check sum: 0aa97b2c023445f040759afc9fdb6c80
     Pseudo is Norm-conserving + core correction, Zval =  9.0
     Generated using ONCVPSP code by D. R. Hamann
     Using radial grid of 2222 points,  6 beta functions with: 
                l(1) =   0
                l(2) =   0
                l(3) =   1
                l(4) =   1
                l(5) =   2
                l(6) =   2

     PseudoPot. # 2 for P  read from file:
     /home/johnpaul/JP_QME/Dojo_Pseudo/nc-sr-05_pbe_stringent_upf/P.upf
     MD5 check sum: e25a93595ed76be8dfbf715c9c2e8dc8
     Pseudo is Norm-conserving + core correction, Zval =  5.0
     Generated using ONCVPSP code by D. R. Hamann
     Using radial grid of 1298 points,  6 beta functions with: 
                l(1) =   0
                l(2) =   0
                l(3) =   1
                l(4) =   1
                l(5) =   2
                l(6) =   2

     PseudoPot. # 3 for O  read from file:
     /home/johnpaul/JP_QME/Dojo_Pseudo/nc-sr-05_pbe_stringent_upf/O.upf
     MD5 check sum: 9db02a5ece9d56b81b65a73f8163743d
     Pseudo is Norm-conserving + core correction, Zval =  6.0
     Generated using ONCVPSP code by D. R. Hamann
     Using radial grid of  936 points,  5 beta functions with: 
                l(1) =   0
                l(2) =   0
                l(3) =   1
                l(4) =   1
                l(5) =   2

     PseudoPot. # 4 for H  read from file:
     /home/johnpaul/JP_QME/Dojo_Pseudo/nc-sr-05_pbe_stringent_upf/H.upf
     MD5 check sum: e96aa7e3e4a958db16958554ea960e2a
     Pseudo is Norm-conserving, Zval =  1.0
     Generated using ONCVPSP code by D. R. Hamann
     Using radial grid of 1166 points,  3 beta functions with: 
                l(1) =   0
                l(2) =   0
                l(3) =   1

     atomic species   valence    mass     pseudopotential
        K1+            9.00    39.09830     K ( 1.00)
        P5+            5.00    30.97376     P ( 1.00)
        O2-            6.00    15.99940     O ( 1.00)
        H1+            1.00     1.00794     H ( 1.00)

      2 Sym. Ops. (no inversion) found



   Cartesian axes

     site n.     atom                  positions (alat units)
         1           K1+ tau(   1) = (   0.0000000   0.0000000   0.3354986  )
         2           K1+ tau(   2) = (   0.2500000   0.2478632   0.1716809  )
         3           K1+ tau(   3) = (   0.0000000   0.4957265   0.0078632  )
         4           K1+ tau(   4) = (   0.5000000   0.0000000   0.0078632  )
         5           K1+ tau(   5) = (   0.5000000   0.4957265   0.3354986  )
         6           K1+ tau(   6) = (   0.2500000   0.7435897   0.4993162  )
         7           K1+ tau(   7) = (   0.7500000   0.2478632   0.4993162  )
         8           K1+ tau(   8) = (   0.7500000   0.7435897   0.1716809  )
         9           P5+ tau(   9) = (   0.0000000   0.0000000   0.0000000  )
        10           P5+ tau(  10) = (   0.2500000   0.2478632   0.4914530  )
        11           P5+ tau(  11) = (   0.0000000   0.4957265   0.3276353  )
        12           P5+ tau(  12) = (   0.5000000   0.0000000   0.3276353  )
        13           P5+ tau(  13) = (   0.5000000   0.4957265   0.0000000  )
        14           P5+ tau(  14) = (   0.2500000   0.7435897   0.1638177  )
        15           P5+ tau(  15) = (   0.7500000   0.2478632   0.1638177  )
        16           P5+ tau(  16) = (   0.7500000   0.7435897   0.4914530  )
        17           O2- tau(  17) = (   0.1160000   0.0342051   0.0858405  )
        18           O2- tau(  18) = (   0.8840000   0.9572479   0.0858405  )
        19           O2- tau(  19) = (   0.1340000   0.2820684   0.5772934  )
        20           O2- tau(  20) = (   0.3660000   0.2136581   0.5772934  )
        21           O2- tau(  21) = (   0.1160000   0.5299316   0.4134758  )
        22           O2- tau(  22) = (   0.6160000   0.0342051   0.4134758  )
        23           O2- tau(  23) = (   0.6160000   0.5299316   0.0858405  )
        24           O2- tau(  24) = (   0.8840000   0.4615214   0.4134758  )
        25           O2- tau(  25) = (   0.3840000   0.9572479   0.4134758  )
        26           O2- tau(  26) = (   0.3840000   0.4615214   0.0858405  )
        27           O2- tau(  27) = (   0.1340000   0.7777949   0.2496581  )
        28           O2- tau(  28) = (   0.6340000   0.2820684   0.2496581  )
        29           O2- tau(  29) = (   0.6340000   0.7777949   0.5772934  )
        30           O2- tau(  30) = (   0.3660000   0.7093846   0.2496581  )
        31           O2- tau(  31) = (   0.8660000   0.2136581   0.2496581  )
        32           O2- tau(  32) = (   0.8660000   0.7093846   0.5772934  )
        33           O2- tau(  33) = (   0.9655000   0.1150085   0.5743447  )
        34           O2- tau(  34) = (   0.0345000   0.8764444   0.5743447  )
        35           O2- tau(  35) = (   0.2845000   0.3628718   0.4105271  )
        36           O2- tau(  36) = (   0.2155000   0.1328547   0.4105271  )
        37           O2- tau(  37) = (   0.9655000   0.6107350   0.2467094  )
        38           O2- tau(  38) = (   0.4655000   0.1150085   0.2467094  )
        39           O2- tau(  39) = (   0.4655000   0.6107350   0.5743447  )
        40           O2- tau(  40) = (   0.0345000   0.3807179   0.2467094  )
        41           O2- tau(  41) = (   0.5345000   0.8764444   0.2467094  )
        42           O2- tau(  42) = (   0.5345000   0.3807179   0.5743447  )
        43           O2- tau(  43) = (   0.2845000   0.8585983   0.0828917  )
        44           O2- tau(  44) = (   0.7845000   0.3628718   0.0828917  )
        45           O2- tau(  45) = (   0.7845000   0.8585983   0.4105271  )
        46           O2- tau(  46) = (   0.2155000   0.6285812   0.0828917  )
        47           O2- tau(  47) = (   0.7155000   0.1328547   0.0828917  )
        48           O2- tau(  48) = (   0.7155000   0.6285812   0.4105271  )
        49           H1+ tau(  49) = (   0.1880000   0.9542735   0.0874786  )
        50           H1+ tau(  50) = (   0.8120000   0.0371795   0.0874786  )
        51           H1+ tau(  51) = (   0.0620000   0.2106838   0.5789316  )
        52           H1+ tau(  52) = (   0.4380000   0.2850427   0.5789316  )
        53           H1+ tau(  53) = (   0.1880000   0.4585470   0.4151140  )
        54           H1+ tau(  54) = (   0.6880000   0.9542735   0.4151140  )
        55           H1+ tau(  55) = (   0.6880000   0.4585470   0.0874786  )
        56           H1+ tau(  56) = (   0.8120000   0.5329060   0.4151140  )
        57           H1+ tau(  57) = (   0.3120000   0.0371795   0.4151140  )
        58           H1+ tau(  58) = (   0.3120000   0.5329060   0.0874786  )
        59           H1+ tau(  59) = (   0.0620000   0.7064103   0.2512963  )
        60           H1+ tau(  60) = (   0.5620000   0.2106838   0.2512963  )
        61           H1+ tau(  61) = (   0.5620000   0.7064103   0.5789316  )
        62           H1+ tau(  62) = (   0.4380000   0.7807692   0.2512963  )
        63           H1+ tau(  63) = (   0.9380000   0.2850427   0.2512963  )
        64           H1+ tau(  64) = (   0.9380000   0.7807692   0.5789316  )

     number of k points=     2  Gaussian smearing, width (Ry)=  0.0100
                       cart. coord. in units 2pi/alat
        k(    1) = (   0.0000000   0.0000000   0.0000000), wk =   1.0000000
        k(    2) = (   0.0000000   0.0000000  -0.7630435), wk =   1.0000000

     Dense  grid:   291743 G-vectors     FFT dimensions: (  96,  96,  64)

     Smooth grid:    86489 G-vectors     FFT dimensions: (  64,  64,  45)

     Estimated max dynamical RAM per process >     551.66 MB

     Check: negative core charge=   -0.000073

     Initial potential from superposition of free atoms

     starting charge  319.84471, renormalised to  320.00000
     Starting wfcs are  216 randomized atomic wfcs

     total cpu time spent up to now is       38.5 secs

     Self-consistent Calculation

     iteration #  1     ecut=    25.00 Ry     beta= 0.70
     Davidson diagonalization with overlap
     ethr =  1.00E-02,  avg # of iterations =  5.0

     total cpu time spent up to now is      117.0 secs

     total energy              =   -1637.72986131 Ry
     estimated scf accuracy    <       3.72411012 Ry

     iteration #  2     ecut=    25.00 Ry     beta= 0.70
     Davidson diagonalization with overlap
     ethr =  1.16E-03,  avg # of iterations =  2.0

     total cpu time spent up to now is      166.6 secs

     total energy              =   -1637.93769805 Ry
     estimated scf accuracy    <       0.35744357 Ry

     iteration #  3     ecut=    25.00 Ry     beta= 0.70
     Davidson diagonalization with overlap
     ethr =  1.12E-04,  avg # of iterations = 10.5

     total cpu time spent up to now is      222.0 secs

     total energy              =   -1637.97928774 Ry
     estimated scf accuracy    <       0.08422631 Ry

     iteration #  4     ecut=    25.00 Ry     beta= 0.70
     Davidson diagonalization with overlap
     ethr =  2.63E-05,  avg # of iterations = 14.0

     total cpu time spent up to now is      279.2 secs

     total energy              =   -1637.99930162 Ry
     estimated scf accuracy    <       0.00294814 Ry

     iteration #  5     ecut=    25.00 Ry     beta= 0.70
     Davidson diagonalization with overlap
     ethr =  9.21E-07,  avg # of iterations =  8.0

     total cpu time spent up to now is      324.9 secs

     total energy              =   -1638.00001214 Ry
     estimated scf accuracy    <       0.00013281 Ry

     iteration #  6     ecut=    25.00 Ry     beta= 0.70
     Davidson diagonalization with overlap
     ethr =  4.15E-08,  avg # of iterations =  3.0

     total cpu time spent up to now is      362.5 secs

     total energy              =   -1638.00004611 Ry
     estimated scf accuracy    <       0.00000462 Ry

     iteration #  7     ecut=    25.00 Ry     beta= 0.70
     Davidson diagonalization with overlap
     ethr =  1.44E-09,  avg # of iterations =  4.0

     total cpu time spent up to now is      417.9 secs

     total energy              =   -1638.00004767 Ry
     estimated scf accuracy    <       0.00000120 Ry

     iteration #  8     ecut=    25.00 Ry     beta= 0.70
     Davidson diagonalization with overlap
     ethr =  3.76E-10,  avg # of iterations =  2.0

     total cpu time spent up to now is      461.5 secs

     End of self-consistent calculation

          k = 0.0000 0.0000 0.0000 ( 10821 PWs)   bands (ev):

   -23.2980 -23.2804 -23.2804 -23.2714 -23.2714 -23.2707 -23.2201 -23.2201
   -19.9510 -19.7292 -19.7291 -19.7281 -19.7281 -19.7007 -19.7006 -19.4105
   -18.5050 -18.4453 -18.4452 -18.4352 -18.4351 -18.4032 -18.4031 -18.3782
   -17.6848 -17.4620 -17.4620 -17.4019 -17.4019 -17.3997 -17.3997 -17.2136
   -16.9731 -16.9240 -16.9240 -16.8931 -16.8930 -16.8866 -16.8865 -16.8647
    -8.0151  -8.0151  -8.0122  -8.0122  -8.0104  -8.0056  -8.0056  -8.0030
    -7.9697  -7.9697  -7.9628  -7.9497  -7.9497  -7.9156  -7.9130  -7.9130
    -7.9054  -7.9054  -7.9018  -7.9000  -7.9000  -7.8871  -7.8871  -7.8656
    -6.6133  -6.1459  -6.1459  -6.1037  -6.1036  -6.0662  -6.0661  -5.6395
    -4.5072  -4.4918  -4.4917  -4.3697  -4.3697  -4.1848  -4.1848  -4.0348
    -3.8846  -2.8946  -2.8945  -2.7502  -2.7502  -2.6953  -2.6953  -2.3227
    -1.9433  -1.9432  -1.8392  -1.8391  -1.8162  -1.8162  -1.7162  -1.7052
    -1.3705  -1.0377  -1.0376  -0.8880  -0.8880  -0.8224  -0.7803  -0.7802
    -0.5344  -0.5344  -0.5035  -0.5035  -0.3436  -0.2904  -0.2904  -0.1013
     0.2650   0.3777   0.3778   0.6032   0.6033   0.6119   0.6120   0.9060
     0.9060   1.0454   1.1065   1.1422   1.1422   1.1587   1.2168   1.4490
     1.4490   1.4722   1.4722   1.5057   1.5057   1.5076   1.5392   1.5392
     2.1865   2.1950   2.1951   2.3287   2.3287   2.4155   2.4671   2.4671
     2.4737   2.4737   2.4803   2.4811   2.4812   2.5391   2.6110   2.6110
     2.8305   2.8305   2.8457   2.9370   2.9370   3.0314   3.0314   3.0377
     7.6976  10.0697  10.0697  10.1339  10.1339  10.4824  10.4824  10.9596
    11.0405  11.0406  11.2478  11.2478  11.3082  11.3082  11.4136  11.4137
    11.5565  11.5696  11.9557  11.9557  12.0404  12.0404  12.0745  12.0745
    12.1752  12.2535  12.2537  12.3297  12.3534  12.3534  12.4876  12.5268

          k = 0.0000 0.0000-0.7630 ( 10796 PWs)   bands (ev):

   -23.2749 -23.2749 -23.2525 -23.2524 -23.2500 -23.2500 -23.2500 -23.2500
   -19.8955 -19.8954 -19.7308 -19.7307 -19.7307 -19.7307 -19.5101 -19.5101
   -18.4871 -18.4870 -18.4131 -18.4130 -18.4130 -18.4130 -18.4021 -18.4020
   -17.5879 -17.5878 -17.4194 -17.4194 -17.4193 -17.4193 -17.2499 -17.2499
   -16.9411 -16.9410 -16.8979 -16.8979 -16.8978 -16.8977 -16.8726 -16.8725
    -8.0268  -8.0268  -8.0268  -8.0268  -8.0232  -8.0232  -8.0155  -8.0154
    -7.9560  -7.9559  -7.9559  -7.9559  -7.9460  -7.9460  -7.9081  -7.9081
    -7.9039  -7.9039  -7.9039  -7.9039  -7.8983  -7.8983  -7.8887  -7.8887
    -6.4495  -6.4495  -6.0567  -6.0567  -6.0567  -6.0567  -5.8562  -5.8561
    -4.4075  -4.4075  -4.4023  -4.4023  -4.4023  -4.4023  -4.0574  -4.0573
    -3.5241  -3.5240  -2.7387  -2.7387  -2.7386  -2.7386  -2.1379  -2.1379
    -2.0275  -2.0275  -1.9058  -1.9058  -1.9058  -1.9058  -1.6947  -1.6947
    -1.2883  -1.2883  -0.9072  -0.9072  -0.9071  -0.9071  -0.7717  -0.7716
    -0.4775  -0.4774  -0.3964  -0.3963  -0.3963  -0.3963  -0.2675  -0.2675
     0.4457   0.4457   0.5656   0.5657   0.7388   0.7388   0.7388   0.7388
     1.0067   1.0068   1.0068   1.0068   1.2846   1.2846   1.3345   1.3346
     1.3454   1.3455   1.5271   1.5271   1.5271   1.5271   1.5487   1.5487
     2.2184   2.2185   2.2912   2.2912   2.2912   2.2913   2.4327   2.4327
     2.4851   2.4851   2.5940   2.5940   2.5941   2.5941   2.6194   2.6195
     2.6669   2.6669   2.9689   2.9689   2.9689   2.9690   2.9965   2.9965
     9.0740   9.0740  10.4666  10.4666  10.4666  10.4666  10.7576  10.7576
    10.7576  10.7576  10.8686  10.8686  11.0325  11.0326  11.0950  11.0950
    11.6506  11.6506  11.8374  11.8375  11.8375  11.8375  12.2222  12.2223
    12.2223  12.2223  12.2833  12.2833  12.3162  12.3162  12.4066  12.4067

     the Fermi energy is     3.7066 ev

!    total energy              =   -1638.00004796 Ry
     estimated scf accuracy    <       0.00000004 Ry
     smearing contrib. (-TS)   =      -0.00000000 Ry
     internal energy E=F+TS    =   -1638.00004796 Ry

     The total energy is F=E-TS. E is the sum of the following terms:
     one-electron contribution =    -671.83163156 Ry
     hartree contribution      =     481.66912382 Ry
     xc contribution           =    -410.85116722 Ry
     ewald contribution        =   -1036.98637300 Ry

     convergence has been achieved in   8 iterations

     Forces acting on atoms (cartesian axes, Ry/au):

     atom    1 type  1   force =     0.00000000    0.00000000   -0.00087028
     atom    2 type  1   force =     0.00000496    0.00000783   -0.00087630
     atom    3 type  1   force =     0.00000000    0.00000000   -0.00087799
     atom    4 type  1   force =     0.00000000    0.00000000   -0.00088078
     atom    5 type  1   force =     0.00000000    0.00000000   -0.00087584
     atom    6 type  1   force =     0.00000256   -0.00000483   -0.00087784
     atom    7 type  1   force =    -0.00000256    0.00000483   -0.00087784
     atom    8 type  1   force =    -0.00000496   -0.00000783   -0.00087630
     atom    9 type  2   force =     0.00000000    0.00000000   -0.04013199
     atom   10 type  2   force =     0.00000314    0.00000474   -0.04012041
     atom   11 type  2   force =     0.00000000    0.00000000   -0.04011697
     atom   12 type  2   force =     0.00000000    0.00000000   -0.04012117
     atom   13 type  2   force =     0.00000000    0.00000000   -0.04012222
     atom   14 type  2   force =     0.00000542   -0.00000615   -0.04011821
     atom   15 type  2   force =    -0.00000542    0.00000615   -0.04011821
     atom   16 type  2   force =    -0.00000314   -0.00000474   -0.04012041
     atom   17 type  3   force =     0.01005213    0.08235126    0.06230273
     atom   18 type  3   force =    -0.01005213   -0.08235126    0.06230273
     atom   19 type  3   force =    -0.01005438    0.08235538    0.06230319
     atom   20 type  3   force =     0.01005279   -0.08235929    0.06230264
     atom   21 type  3   force =     0.01005368    0.08235769    0.06230219
     atom   22 type  3   force =     0.01005480    0.08235683    0.06230249
     atom   23 type  3   force =     0.01005596    0.08235735    0.06230399
     atom   24 type  3   force =    -0.01005368   -0.08235769    0.06230219
     atom   25 type  3   force =    -0.01005480   -0.08235683    0.06230249
     atom   26 type  3   force =    -0.01005596   -0.08235735    0.06230399
     atom   27 type  3   force =    -0.01005576    0.08235714    0.06230197
     atom   28 type  3   force =    -0.01005411    0.08236009    0.06230418
     atom   29 type  3   force =    -0.01005279    0.08235929    0.06230264
     atom   30 type  3   force =     0.01005411   -0.08236009    0.06230418
     atom   31 type  3   force =     0.01005576   -0.08235714    0.06230197
     atom   32 type  3   force =     0.01005438   -0.08235538    0.06230319
     atom   33 type  3   force =    -0.01038557    0.08426835   -0.03316652
     atom   34 type  3   force =     0.01038557   -0.08426835   -0.03316652
     atom   35 type  3   force =     0.01038099    0.08426140   -0.03316383
     atom   36 type  3   force =    -0.01037931   -0.08425877   -0.03316161
     atom   37 type  3   force =    -0.01037932    0.08426000   -0.03316280
     atom   38 type  3   force =    -0.01038039    0.08425889   -0.03316162
     atom   39 type  3   force =    -0.01038262    0.08426488   -0.03316496
     atom   40 type  3   force =     0.01037932   -0.08426000   -0.03316280
     atom   41 type  3   force =     0.01038039   -0.08425889   -0.03316162
     atom   42 type  3   force =     0.01038262   -0.08426488   -0.03316496
     atom   43 type  3   force =     0.01037729    0.08426122   -0.03316246
     atom   44 type  3   force =     0.01038245    0.08426030   -0.03316342
     atom   45 type  3   force =     0.01037931    0.08425877   -0.03316161
     atom   46 type  3   force =    -0.01038245   -0.08426030   -0.03316342
     atom   47 type  3   force =    -0.01037729   -0.08426122   -0.03316246
     atom   48 type  3   force =    -0.01038099   -0.08426140   -0.03316383
     atom   49 type  4   force =     0.05027368   -0.06946636   -0.00864052
     atom   50 type  4   force =    -0.05027368    0.06946636   -0.00864052
     atom   51 type  4   force =    -0.05027349   -0.06946501   -0.00864070
     atom   52 type  4   force =     0.05027437    0.06946684   -0.00864064
     atom   53 type  4   force =     0.05027293   -0.06946492   -0.00864067
     atom   54 type  4   force =     0.05027128   -0.06946391   -0.00864063
     atom   55 type  4   force =     0.05027130   -0.06946415   -0.00864041
     atom   56 type  4   force =    -0.05027293    0.06946492   -0.00864067
     atom   57 type  4   force =    -0.05027128    0.06946391   -0.00864063
     atom   58 type  4   force =    -0.05027130    0.06946415   -0.00864041
     atom   59 type  4   force =    -0.05027221   -0.06946484   -0.00864055
     atom   60 type  4   force =    -0.05027090   -0.06946319   -0.00864065
     atom   61 type  4   force =    -0.05027437   -0.06946684   -0.00864064
     atom   62 type  4   force =     0.05027090    0.06946319   -0.00864065
     atom   63 type  4   force =     0.05027221    0.06946484   -0.00864055
     atom   64 type  4   force =     0.05027349    0.06946501   -0.00864070

     Total force =     0.660976     Total SCF correction =     0.000593

     BFGS Geometry Optimization
     Energy error            =      0.0E+00
     Gradient error          =      8.4E-02

     number of scf cycles    =   1
     number of bfgs steps    =   0

     energy   new            =   -1638.0000479628 Ry

     new trust radius        =       0.1037597237 bohr
     new conv_thr            =       0.0000010000 Ry


ATOMIC_POSITIONS (angstrom)
K1+           0.0000000000        0.0000000000        3.5323394700
K1+           2.6325026258        2.6100041438        1.8073362802
K1+           0.0000000000        5.2200000000        0.0823353867
K1+           5.2650000000        0.0000000000        0.0823339136
K1+           5.2650000000        5.2200000000        3.5323365229
K1+           2.6325013562        7.8299974457        5.2573354668
K1+           7.8974986438        2.6100025543        5.2573354668
K1+           7.8974973742        7.8299958562        1.8073362802
P5+           0.0000000000        0.0000000000       -0.0212369321
P5+           2.6325016605        2.6100025059        5.1537691923
P5+           0.0000000000        5.2200000000        3.4287710121
P5+           5.2650000000        0.0000000000        3.4287687905
P5+           5.2650000000        5.2200000000       -0.0212317662
P5+           2.6325028693        7.8299967437        1.7037703553
P5+           7.8974971307        2.6100032563        1.7037703553
P5+           7.8974983395        7.8299974941        5.1537691923
O2-           1.2267993587        0.4037584103        0.9368691874
O2-           9.3032006413       10.0362415897        0.9368691874
O2-           1.4056994489        3.0137605894        6.1118694257
O2-           3.8592997055        2.2062373381        6.1118691375
O2-           1.2268001809        5.6237618115        4.3868688990
O2-           6.4918007720        0.4037613588        4.3868690583
O2-           6.4918013868        5.6237616330        0.9368698502
O2-           9.3031998191        4.8162381885        4.3868688990
O2-           4.0381992280       10.0362386412        4.3868690583
O2-           4.0381986132        4.8162383670        0.9368698502
O2-           1.4056987185        8.2337615192        2.6618687812
O2-           6.6706995924        3.0137630840        2.6618699497
O2-           6.6707002945        8.2337626619        6.1118691375
O2-           3.8593004076        7.4262369160        2.6618699497
O2-           9.1243012815        2.2062384808        2.6618687812
O2-           9.1243005511        7.4262394106        6.1118694257
O2-          10.1612191946        1.2556328917        6.0302990346
O2-           0.3687808054        9.1843671083        6.0302990346
O2-           3.0012783844        3.8656292143        4.3053004548
O2-           2.2637225056        1.3543721785        4.3053016341
O2-          10.1612225011        6.4756284735        2.5803009994
O2-           4.8962219343        1.2556278833        2.5803016261
O2-           4.8962207538        6.4756310562        6.0302998611
O2-           0.3687774989        3.9643715265        2.5803009994
O2-           5.6337780657        9.1843721167        2.5803016261
O2-           5.6337792462        3.9643689438        6.0302998611
O2-           3.0012764258        9.0856291172        0.8553011816
O2-           8.2662791564        3.8656286324        0.8553006728
O2-           8.2662774944        9.0856278215        4.3053016341
O2-           2.2637208436        6.5743713676        0.8553006728
O2-           7.5287235742        1.3543708828        0.8553011816
O2-           7.5287216156        6.5743707857        4.3053004548
H1+           2.0062436883       10.0117399841        0.9165776360
H1+           8.5237563117        0.4282600159        0.9165776360
H1+           0.6262564149        2.1817407001        6.0915775408
H1+           4.6387440504        3.0382602704        6.0915775707
H1+           2.0062432910        4.7917407494        4.3665775553
H1+           7.2712424145       10.0117412795        4.3665775762
H1+           7.2712424242        4.7917411528        0.9165776930
H1+           8.5237567090        5.6482592506        4.3665775553
H1+           3.2587575855        0.4282587205        4.3665775762
H1+           3.2587575758        5.6482588472        0.9165776930
H1+           0.6262570940        7.4017407894        2.6415776159
H1+           5.8912577836        2.1817416647        2.6415775650
H1+           5.8912559496        7.4017397296        6.0915775707
H1+           4.6387422164        8.2582583353        2.6415775650
H1+           9.9037429060        3.0382592106        2.6415776159
H1+           9.9037435851        8.2582592999        6.0915775408



     Writing output data file ./outdir/KDP.save/
     NEW-OLD atomic charge density approx. for the potential

     Check: negative core charge=   -0.000073

     negative rho (up, down):  4.477E-05 0.000E+00

     total cpu time spent up to now is      512.7 secs

     Self-consistent Calculation

     iteration #  1     ecut=    25.00 Ry     beta= 0.70
     Davidson diagonalization with overlap
     ethr =  1.00E-06,  avg # of iterations = 16.0

     total cpu time spent up to now is      638.6 secs

     total energy              =   -1638.21366770 Ry
     estimated scf accuracy    <       0.20143227 Ry

     iteration #  2     ecut=    25.00 Ry     beta= 0.70
     Davidson diagonalization with overlap
     ethr =  6.29E-05,  avg # of iterations =  4.0

     total cpu time spent up to now is      692.6 secs

     total energy              =   -1638.24363157 Ry
     estimated scf accuracy    <       0.02810034 Ry

     iteration #  3     ecut=    25.00 Ry     beta= 0.70
     Davidson diagonalization with overlap
     ethr =  8.78E-06,  avg # of iterations =  4.0

     total cpu time spent up to now is      740.3 secs

     total energy              =   -1638.25089071 Ry
     estimated scf accuracy    <       0.00491687 Ry

     iteration #  4     ecut=    25.00 Ry     beta= 0.70
     Davidson diagonalization with overlap
     ethr =  1.54E-06,  avg # of iterations =  6.5

     total cpu time spent up to now is      786.1 secs

     total energy              =   -1638.25195001 Ry
     estimated scf accuracy    <       0.00046016 Ry

     iteration #  5     ecut=    25.00 Ry     beta= 0.70
     Davidson diagonalization with overlap
     ethr =  1.44E-07,  avg # of iterations =  2.0

     total cpu time spent up to now is      815.5 secs

     total energy              =   -1638.25204925 Ry
     estimated scf accuracy    <       0.00001056 Ry

     iteration #  6     ecut=    25.00 Ry     beta= 0.70
     Davidson diagonalization with overlap
     ethr =  3.30E-09,  avg # of iterations =  3.0

     total cpu time spent up to now is      838.4 secs

     End of self-consistent calculation

          k = 0.0000 0.0000 0.0000 ( 10821 PWs)   bands (ev):

   -23.1720 -23.1551 -23.1551 -23.1460 -23.1460 -23.1452 -23.0946 -23.0946
   -19.4851 -19.2322 -19.2322 -19.2305 -19.2305 -19.2006 -19.2006 -18.8355
   -17.9676 -17.9274 -17.9274 -17.8939 -17.8939 -17.8469 -17.8389 -17.8389
   -17.6691 -17.4249 -17.4249 -17.3252 -17.3252 -17.3210 -17.3210 -17.1190
   -17.0970 -17.0508 -17.0508 -17.0031 -17.0031 -16.9962 -16.9961 -16.9865
    -7.8973  -7.8973  -7.8935  -7.8935  -7.8910  -7.8910  -7.8866  -7.8827
    -7.8500  -7.8460  -7.8460  -7.8378  -7.8378  -7.7979  -7.7960  -7.7960
    -7.7886  -7.7879  -7.7879  -7.7875  -7.7875  -7.7701  -7.7701  -7.7424
    -6.3339  -5.8489  -5.8489  -5.7747  -5.7747  -5.7489  -5.7489  -5.1335
    -4.1811  -4.0582  -4.0582  -3.9728  -3.9728  -3.9537  -3.7246  -3.7148
    -3.7148  -2.8314  -2.8314  -2.7590  -2.7590  -2.7272  -2.7272  -2.0735
    -1.8145  -1.8145  -1.7618  -1.7618  -1.7037  -1.7037  -1.6953  -1.5314
    -1.2877  -0.9269  -0.8687  -0.8687  -0.8571  -0.8571  -0.7372  -0.7372
    -0.6013  -0.6013  -0.5377  -0.5377  -0.3868  -0.3868  -0.3746  -0.0952
     0.4564   0.5873   0.5873   0.8571   0.8571   0.8684   0.8684   1.1037
     1.1037   1.1100   1.1515   1.1515   1.2759   1.5241   1.5415   1.5479
     1.5479   1.6103   1.6721   1.6721   1.6999   1.6999   1.8304   1.8304
     1.9572   2.0316   2.0316   2.1429   2.1429   2.2366   2.3375   2.3375
     2.3476   2.3476   2.4476   2.5471   2.5471   2.5811   2.5811   2.6448
     2.7110   2.7110   2.7536   2.7798   2.8514   2.8514   2.8709   2.8709
     7.5364   9.9830   9.9830  10.0250  10.0250  10.2393  10.2393  10.6827
    10.6828  11.0883  11.0902  11.0905  11.1734  11.1734  11.2105  11.2379
    11.4495  11.4495  11.6894  11.6895  11.8177  11.8177  11.8290  11.9118
    11.9118  11.9902  11.9902  12.0706  12.0713  12.3642  12.3744  12.3745

          k = 0.0000 0.0000-0.7630 ( 10796 PWs)   bands (ev):

   -23.1493 -23.1493 -23.1277 -23.1277 -23.1247 -23.1247 -23.1247 -23.1247
   -19.4219 -19.4219 -19.2344 -19.2344 -19.2344 -19.2344 -18.9678 -18.9678
   -17.9592 -17.9592 -17.8762 -17.8762 -17.8616 -17.8616 -17.8615 -17.8615
   -17.5420 -17.5420 -17.3661 -17.3661 -17.3661 -17.3661 -17.1555 -17.1555
   -17.0607 -17.0607 -17.0101 -17.0101 -17.0101 -17.0101 -16.9866 -16.9866
    -7.9103  -7.9103  -7.9103  -7.9103  -7.8987  -7.8987  -7.8978  -7.8978
    -7.8405  -7.8405  -7.8405  -7.8405  -7.8313  -7.8313  -7.7886  -7.7886
    -7.7886  -7.7886  -7.7871  -7.7871  -7.7792  -7.7792  -7.7738  -7.7738
    -6.1666  -6.1666  -5.7339  -5.7339  -5.7339  -5.7339  -5.5008  -5.5007
    -3.9991  -3.9991  -3.9991  -3.9991  -3.8595  -3.8595  -3.6939  -3.6939
    -3.6583  -3.6583  -2.7247  -2.7247  -2.7247  -2.7247  -1.9400  -1.9400
    -1.9368  -1.9368  -1.8234  -1.8234  -1.8234  -1.8234  -1.6629  -1.6629
    -1.2213  -1.2213  -0.8028  -0.8027  -0.7703  -0.7703  -0.7703  -0.7703
    -0.5014  -0.5014  -0.4872  -0.4872  -0.4872  -0.4872  -0.2827  -0.2827
     0.6634   0.6634   0.7510   0.7510   1.0153   1.0153   1.0153   1.0153
     1.1174   1.1174   1.1174   1.1174   1.3945   1.3945   1.5171   1.5171
     1.6526   1.6526   1.7068   1.7068   1.7138   1.7138   1.7138   1.7138
     2.0501   2.0502   2.1246   2.1246   2.1246   2.1246   2.2900   2.2900
     2.4329   2.4329   2.5799   2.5799   2.6275   2.6275   2.6275   2.6275
     2.6999   2.6999   2.7431   2.7431   2.7986   2.7986   2.7986   2.7986
     8.9066   8.9066  10.2712  10.2712  10.2712  10.2712  10.7116  10.7116
    10.7116  10.7116  10.7377  10.7377  10.7694  10.7694  10.8893  10.8893
    11.5252  11.5252  11.6893  11.6893  11.6894  11.6894  11.8000  11.8000
    11.9318  11.9318  11.9318  11.9318  12.2401  12.2401  12.3719  12.3720

     the Fermi energy is     3.6239 ev

!    total energy              =   -1638.25205167 Ry
     estimated scf accuracy    <       0.00000086 Ry
     smearing contrib. (-TS)   =      -0.00000000 Ry
     internal energy E=F+TS    =   -1638.25205167 Ry

     The total energy is F=E-TS. E is the sum of the following terms:
     one-electron contribution =    -632.66392460 Ry
     hartree contribution      =     462.49046462 Ry
     xc contribution           =    -409.11709622 Ry
     ewald contribution        =   -1058.96149547 Ry

     convergence has been achieved in   6 iterations

     Forces acting on atoms (cartesian axes, Ry/au):

     atom    1 type  1   force =     0.00000000    0.00000000   -0.00583498
     atom    2 type  1   force =    -0.00000053   -0.00000000   -0.00583375
     atom    3 type  1   force =     0.00000000    0.00000000   -0.00583382
     atom    4 type  1   force =     0.00000000    0.00000000   -0.00583541
     atom    5 type  1   force =     0.00000000    0.00000000   -0.00583444
     atom    6 type  1   force =     0.00000024   -0.00000090   -0.00583376
     atom    7 type  1   force =    -0.00000024    0.00000090   -0.00583376
     atom    8 type  1   force =     0.00000053    0.00000000   -0.00583375
     atom    9 type  2   force =     0.00000000    0.00000000    0.02625587
     atom   10 type  2   force =    -0.00000380   -0.00000445    0.02625154
     atom   11 type  2   force =     0.00000000    0.00000000    0.02624703
     atom   12 type  2   force =     0.00000000    0.00000000    0.02625514
     atom   13 type  2   force =     0.00000000    0.00000000    0.02625190
     atom   14 type  2   force =    -0.00000626    0.00000665    0.02624811
     atom   15 type  2   force =     0.00000626   -0.00000665    0.02624811
     atom   16 type  2   force =     0.00000380    0.00000445    0.02625154
     atom   17 type  3   force =    -0.00541454    0.00820928   -0.00086195
     atom   18 type  3   force =     0.00541454   -0.00820928   -0.00086195
     atom   19 type  3   force =     0.00541387    0.00820808   -0.00085986
     atom   20 type  3   force =    -0.00540894   -0.00820434   -0.00086016
     atom   21 type  3   force =    -0.00541011    0.00820745   -0.00085881
     atom   22 type  3   force =    -0.00541311    0.00820954   -0.00085993
     atom   23 type  3   force =    -0.00541390    0.00820820   -0.00086132
     atom   24 type  3   force =     0.00541011   -0.00820745   -0.00085881
     atom   25 type  3   force =     0.00541311   -0.00820954   -0.00085993
     atom   26 type  3   force =     0.00541390   -0.00820820   -0.00086132
     atom   27 type  3   force =     0.00541517    0.00820479   -0.00086159
     atom   28 type  3   force =     0.00540890    0.00820796   -0.00085814
     atom   29 type  3   force =     0.00540894    0.00820434   -0.00086016
     atom   30 type  3   force =    -0.00540890   -0.00820796   -0.00085814
     atom   31 type  3   force =    -0.00541517   -0.00820479   -0.00086159
     atom   32 type  3   force =    -0.00541387   -0.00820808   -0.00085986
     atom   33 type  3   force =     0.00572483    0.02981751   -0.00509468
     atom   34 type  3   force =    -0.00572483   -0.02981751   -0.00509468
     atom   35 type  3   force =    -0.00572334    0.02982352   -0.00509765
     atom   36 type  3   force =     0.00572570   -0.02981829   -0.00509401
     atom   37 type  3   force =     0.00572357    0.02981929   -0.00509418
     atom   38 type  3   force =     0.00572419    0.02982268   -0.00509621
     atom   39 type  3   force =     0.00572493    0.02981754   -0.00509337
     atom   40 type  3   force =    -0.00572357   -0.02981929   -0.00509418
     atom   41 type  3   force =    -0.00572419   -0.02982268   -0.00509621
     atom   42 type  3   force =    -0.00572493   -0.02981754   -0.00509337
     atom   43 type  3   force =    -0.00572378    0.02981617   -0.00509311
     atom   44 type  3   force =    -0.00572558    0.02982199   -0.00509633
     atom   45 type  3   force =    -0.00572570    0.02981829   -0.00509401
     atom   46 type  3   force =     0.00572558   -0.02982199   -0.00509633
     atom   47 type  3   force =     0.00572378   -0.02981617   -0.00509311
     atom   48 type  3   force =     0.00572334   -0.02982352   -0.00509765
     atom   49 type  4   force =     0.01621314   -0.02421638   -0.00425342
     atom   50 type  4   force =    -0.01621314    0.02421638   -0.00425342
     atom   51 type  4   force =    -0.01621297   -0.02421536   -0.00425373
     atom   52 type  4   force =     0.01621256    0.02421432   -0.00425311
     atom   53 type  4   force =     0.01621299   -0.02421532   -0.00425324
     atom   54 type  4   force =     0.01621390   -0.02421647   -0.00425326
     atom   55 type  4   force =     0.01621410   -0.02421602   -0.00425346
     atom   56 type  4   force =    -0.01621299    0.02421532   -0.00425324
     atom   57 type  4   force =    -0.01621390    0.02421647   -0.00425326
     atom   58 type  4   force =    -0.01621410    0.02421602   -0.00425346
     atom   59 type  4   force =    -0.01621351   -0.02421606   -0.00425321
     atom   60 type  4   force =    -0.01621362   -0.02421584   -0.00425306
     atom   61 type  4   force =    -0.01621256   -0.02421432   -0.00425311
     atom   62 type  4   force =     0.01621362    0.02421584   -0.00425306
     atom   63 type  4   force =     0.01621351    0.02421606   -0.00425321
     atom   64 type  4   force =     0.01621297    0.02421536   -0.00425373

     Total force =     0.190758     Total SCF correction =     0.001965
     Energy error            =      2.5E-01
     Gradient error          =      3.0E-02

     number of scf cycles    =   2
     number of bfgs steps    =   1

     energy   old            =   -1638.0000479628 Ry
     energy   new            =   -1638.2520516682 Ry

     CASE: energy  _new < energy  _old

     new trust radius        =       0.0442083578 bohr
     new conv_thr            =       0.0000010000 Ry


ATOMIC_POSITIONS (angstrom)
K1+           0.0000000000        0.0000000000        3.5284923390
K1+           2.6325024655        2.6100044397        1.8034897248
K1+           0.0000000000        5.2200000000        0.0784887238
K1+           5.2650000000        0.0000000000        0.0784861047
K1+           5.2650000000        5.2200000000        3.5284895306
K1+           2.6325016086        7.8299966737        5.2534888444
K1+           7.8974983914        2.6100033263        5.2534888444
K1+           7.8974975345        7.8299955603        1.8034897248
P5+           0.0000000000        0.0000000000       -0.0055982502
P5+           2.6324992941        2.6099997749        5.1694054854
P5+           0.0000000000        5.2200000000        3.4444044902
P5+           5.2650000000        0.0000000000        3.4444074065
P5+           5.2650000000        5.2200000000       -0.0055953086
P5+           2.6324989843        7.8300008570        1.7194044913
P5+           7.8975010157        2.6099991430        1.7194044913
P5+           7.8975007059        7.8300002251        5.1694054854
O2-           1.2236417472        0.4122511465        0.9386712379
O2-           9.3063582528       10.0277488535        0.9386712379
O2-           1.4088565354        3.0222526967        6.1136728636
O2-           3.8561457813        2.1977475253        6.1136723538
O2-           1.2236455254        5.6322535968        4.3886729837
O2-           6.4886441955        0.4122544738        4.3886724192
O2-           6.4886443373        5.6322538914        0.9386723605
O2-           9.3063544746        4.8077464032        4.3886729837
O2-           4.0413558045       10.0277455262        4.3886724192
O2-           4.0413556627        4.8077461086        0.9386723605
O2-           1.4088566031        8.2422515446        2.6636710383
O2-           6.6738534401        3.0222552898        2.6636745500
O2-           6.6738542187        8.2422524747        6.1136723538
O2-           3.8561465599        7.4177447102        2.6636745500
O2-           9.1211433969        2.1977484554        2.6636710383
O2-           9.1211434646        7.4177473033        6.1136728636
O2-          10.1645669709        1.2783228328        6.0257096054
O2-           0.3654330291        9.1616771672        6.0257096054
O2-           2.9979314069        3.8883228212        4.3007091829
O2-           2.2670710854        1.3316820884        4.3007128252
O2-          10.1645696911        6.4983192613        2.5757120385
O2-           4.8995694905        1.2783208437        2.5757113824
O2-           4.8995687061        6.4983208831        6.0257113475
O2-           0.3654303089        3.9416807387        2.5757120385
O2-           5.6304305095        9.1616791563        2.5757113824
O2-           5.6304312939        3.9416791169        6.0257113475
O2-           2.9979290226        9.1083179120        0.8507129287
O2-           8.2629307699        3.8883211952        0.8507102826
O2-           8.2629289146        9.1083179116        4.3007128252
O2-           2.2670692301        6.5516788048        0.8507102826
O2-           7.5320709774        1.3316820880        0.8507129287
O2-           7.5320685931        6.5516771788        4.3007091829
H1+           2.0187503218        9.9932732651        0.9134692927
H1+           8.5112496782        0.4467267349        0.9134692927
H1+           0.6137499028        2.1632747025        6.0884689890
H1+           4.6512503263        3.0567256574        6.0884694204
H1+           2.0187497948        4.7732747801        4.3634693216
H1+           7.2837494527        9.9932745955        4.3634693292
H1+           7.2837495901        4.7732747512        0.9134693260
H1+           8.5112502052        5.6667252199        4.3634693216
H1+           3.2462505473        0.4467254045        4.3634693292
H1+           3.2462504099        5.6667252488        0.9134693260
H1+           0.6137502785        7.3832743358        2.6384694094
H1+           5.8787509429        2.1632754223        2.6384694474
H1+           5.8787496737        7.3832743426        6.0884694204
H1+           4.6512490571        8.2767245777        2.6384694474
H1+           9.9162497215        3.0567256642        2.6384694094
H1+           9.9162500972        8.2767252975        6.0884689890



     Writing output data file ./outdir/KDP.save/
     NEW-OLD atomic charge density approx. for the potential

     Check: negative core charge=   -0.000073

     total cpu time spent up to now is      856.4 secs

     Self-consistent Calculation

     iteration #  1     ecut=    25.00 Ry     beta= 0.70
     Davidson diagonalization with overlap
     ethr =  1.00E-06,  avg # of iterations = 17.5

     total cpu time spent up to now is      920.3 secs

     total energy              =   -1638.27880635 Ry
     estimated scf accuracy    <       0.02418271 Ry

     iteration #  2     ecut=    25.00 Ry     beta= 0.70
     Davidson diagonalization with overlap
     ethr =  7.56E-06,  avg # of iterations =  2.0

     total cpu time spent up to now is      942.5 secs

     total energy              =   -1638.28137609 Ry
     estimated scf accuracy    <       0.00428339 Ry

     iteration #  3     ecut=    25.00 Ry     beta= 0.70
     Davidson diagonalization with overlap
     ethr =  1.34E-06,  avg # of iterations =  2.0

     total cpu time spent up to now is      965.0 secs

     total energy              =   -1638.28254171 Ry
     estimated scf accuracy    <       0.00122659 Ry

     iteration #  4     ecut=    25.00 Ry     beta= 0.70
     Davidson diagonalization with overlap
     ethr =  3.83E-07,  avg # of iterations =  2.0

     total cpu time spent up to now is      986.1 secs

     total energy              =   -1638.28277587 Ry
     estimated scf accuracy    <       0.00002649 Ry

     iteration #  5     ecut=    25.00 Ry     beta= 0.70
     Davidson diagonalization with overlap
     ethr =  8.28E-09,  avg # of iterations =  2.5

     total cpu time spent up to now is     1008.5 secs

     total energy              =   -1638.28278357 Ry
     estimated scf accuracy    <       0.00000182 Ry

     iteration #  6     ecut=    25.00 Ry     beta= 0.70
     Davidson diagonalization with overlap
     ethr =  5.68E-10,  avg # of iterations =  2.0

     total cpu time spent up to now is     1030.5 secs

     End of self-consistent calculation

          k = 0.0000 0.0000 0.0000 ( 10821 PWs)   bands (ev):

   -23.1473 -23.1303 -23.1303 -23.1214 -23.1214 -23.1205 -23.0700 -23.0700
   -19.4098 -19.1524 -19.1524 -19.1488 -19.1488 -19.1191 -19.1191 -18.7434
   -17.9235 -17.8775 -17.8775 -17.8431 -17.8431 -17.7841 -17.7804 -17.7804
   -17.6030 -17.3619 -17.3619 -17.2436 -17.2435 -17.2404 -17.2404 -17.0549
   -17.0362 -16.9991 -16.9991 -16.9435 -16.9435 -16.9281 -16.9281 -16.9146
    -7.8790  -7.8790  -7.8694  -7.8694  -7.8670  -7.8670  -7.8636  -7.8573
    -7.8275  -7.8216  -7.8216  -7.8130  -7.8130  -7.7747  -7.7729  -7.7729
    -7.7650  -7.7650  -7.7650  -7.7643  -7.7643  -7.7462  -7.7462  -7.7184
    -6.3295  -5.8400  -5.8400  -5.7562  -5.7562  -5.7398  -5.7398  -5.0770
    -4.2215  -3.9904  -3.9904  -3.9567  -3.9567  -3.8478  -3.7563  -3.6739
    -3.6739  -2.7907  -2.7907  -2.7572  -2.7572  -2.7413  -2.7413  -1.9985
    -1.7693  -1.7693  -1.7421  -1.7421  -1.7157  -1.6801  -1.6801  -1.4696
    -1.2840  -0.9426  -0.8658  -0.8658  -0.8515  -0.8515  -0.7330  -0.7330
    -0.5910  -0.5910  -0.5238  -0.5238  -0.3799  -0.3537  -0.3537  -0.0564
     0.5045   0.6195   0.6195   0.8994   0.8994   0.9153   0.9153   1.1213
     1.1213   1.1462   1.2012   1.2012   1.3079   1.5719   1.5807   1.6039
     1.6039   1.6522   1.7110   1.7110   1.7758   1.7758   1.8968   1.8968
     1.9750   2.0221   2.0221   2.1339   2.1339   2.2402   2.3326   2.3326
     2.3472   2.3472   2.4498   2.5603   2.5603   2.5916   2.5916   2.6478
     2.7316   2.7316   2.7767   2.7792   2.8604   2.8604   2.8779   2.8779
     7.4906   9.8916   9.8916  10.0190  10.0190  10.1568  10.1568  10.5507
    10.5507  10.9735  10.9735  11.0649  11.1081  11.1287  11.1287  11.1885
    11.4583  11.4583  11.5963  11.5963  11.6169  11.7084  11.7084  11.8827
    11.8827  11.9014  11.9014  12.0402  12.0402  12.2725  12.3953  12.3953

          k = 0.0000 0.0000-0.7630 ( 10796 PWs)   bands (ev):

   -23.1246 -23.1246 -23.1031 -23.1031 -23.1000 -23.1000 -23.1000 -23.1000
   -19.3441 -19.3441 -19.1534 -19.1534 -19.1534 -19.1534 -18.8808 -18.8808
   -17.9142 -17.9142 -17.8177 -17.8177 -17.8074 -17.8074 -17.8074 -17.8074
   -17.4706 -17.4706 -17.2945 -17.2945 -17.2945 -17.2945 -17.0745 -17.0744
   -17.0134 -17.0134 -16.9478 -16.9478 -16.9478 -16.9478 -16.9168 -16.9168
    -7.8883  -7.8883  -7.8883  -7.8883  -7.8749  -7.8749  -7.8735  -7.8735
    -7.8161  -7.8161  -7.8161  -7.8161  -7.8080  -7.8080  -7.7656  -7.7656
    -7.7656  -7.7656  -7.7624  -7.7624  -7.7558  -7.7558  -7.7497  -7.7497
    -6.1618  -6.1618  -5.7221  -5.7221  -5.7221  -5.7221  -5.4765  -5.4765
    -3.9584  -3.9584  -3.9584  -3.9584  -3.7675  -3.7675  -3.7075  -3.7075
    -3.6643  -3.6643  -2.7181  -2.7181  -2.7181  -2.7181  -1.8980  -1.8980
    -1.8821  -1.8821  -1.7963  -1.7963  -1.7963  -1.7963  -1.6744  -1.6744
    -1.2186  -1.2186  -0.8001  -0.8001  -0.7652  -0.7652  -0.7652  -0.7652
    -0.5003  -0.5003  -0.4679  -0.4679  -0.4679  -0.4679  -0.2473  -0.2473
     0.7049   0.7049   0.7800   0.7800   1.0516   1.0516   1.0516   1.0516
     1.1634   1.1634   1.1634   1.1634   1.4365   1.4365   1.5669   1.5669
     1.7079   1.7079   1.7479   1.7479   1.7704   1.7704   1.7704   1.7704
     2.0602   2.0602   2.1261   2.1261   2.1261   2.1261   2.3001   2.3001
     2.4282   2.4282   2.6010   2.6010   2.6452   2.6452   2.6452   2.6452
     2.6968   2.6968   2.7472   2.7472   2.8004   2.8004   2.8004   2.8004
     8.8543   8.8543  10.1932  10.1932  10.1932  10.1932  10.6434  10.6434
    10.6682  10.6682  10.6682  10.6682  10.7115  10.7115  10.8004  10.8004
    11.4276  11.4276  11.5941  11.5941  11.5941  11.5941  11.7656  11.7656
    11.8923  11.8923  11.8923  11.8923  12.0448  12.0448  12.2107  12.2108

     the Fermi energy is     3.6457 ev

!    total energy              =   -1638.28278388 Ry
     estimated scf accuracy    <       0.00000015 Ry
     smearing contrib. (-TS)   =      -0.00000000 Ry
     internal energy E=F+TS    =   -1638.28278388 Ry

     The total energy is F=E-TS. E is the sum of the following terms:
     one-electron contribution =    -624.26456029 Ry
     hartree contribution      =     458.39247158 Ry
     xc contribution           =    -408.71141474 Ry
     ewald contribution        =   -1063.69928042 Ry

     convergence has been achieved in   6 iterations

     Forces acting on atoms (cartesian axes, Ry/au):

     atom    1 type  1   force =     0.00000000    0.00000000   -0.00490050
     atom    2 type  1   force =     0.00000018    0.00000085   -0.00489998
     atom    3 type  1   force =     0.00000000    0.00000000   -0.00489961
     atom    4 type  1   force =     0.00000000    0.00000000   -0.00489853
     atom    5 type  1   force =     0.00000000    0.00000000   -0.00489985
     atom    6 type  1   force =     0.00000038   -0.00000135   -0.00489993
     atom    7 type  1   force =    -0.00000038    0.00000135   -0.00489993
     atom    8 type  1   force =    -0.00000018   -0.00000085   -0.00489998
     atom    9 type  2   force =     0.00000000    0.00000000   -0.01190330
     atom   10 type  2   force =     0.00000580    0.00000875   -0.01190281
     atom   11 type  2   force =     0.00000000    0.00000000   -0.01189592
     atom   12 type  2   force =     0.00000000    0.00000000   -0.01190888
     atom   13 type  2   force =     0.00000000    0.00000000   -0.01190114
     atom   14 type  2   force =     0.00000595   -0.00001061   -0.01189829
     atom   15 type  2   force =    -0.00000595    0.00001061   -0.01189829
     atom   16 type  2   force =    -0.00000580   -0.00000875   -0.01190281
     atom   17 type  3   force =     0.00517464   -0.00177903   -0.00149369
     atom   18 type  3   force =    -0.00517464    0.00177903   -0.00149369
     atom   19 type  3   force =    -0.00517373   -0.00177901   -0.00149343
     atom   20 type  3   force =     0.00517001    0.00177836   -0.00149501
     atom   21 type  3   force =     0.00516940   -0.00177888   -0.00149594
     atom   22 type  3   force =     0.00517440   -0.00177980   -0.00149308
     atom   23 type  3   force =     0.00517197   -0.00177947   -0.00149482
     atom   24 type  3   force =    -0.00516940    0.00177888   -0.00149594
     atom   25 type  3   force =    -0.00517440    0.00177980   -0.00149308
     atom   26 type  3   force =    -0.00517197    0.00177947   -0.00149482
     atom   27 type  3   force =    -0.00517462   -0.00177760   -0.00149225
     atom   28 type  3   force =    -0.00516711   -0.00178081   -0.00149830
     atom   29 type  3   force =    -0.00517001   -0.00177836   -0.00149501
     atom   30 type  3   force =     0.00516711    0.00178081   -0.00149830
     atom   31 type  3   force =     0.00517462    0.00177760   -0.00149225
     atom   32 type  3   force =     0.00517373    0.00177901   -0.00149343
     atom   33 type  3   force =     0.01325155    0.00148489    0.01195019
     atom   34 type  3   force =    -0.01325155   -0.00148489    0.01195019
     atom   35 type  3   force =    -0.01325192    0.00148226    0.01195248
     atom   36 type  3   force =     0.01324938   -0.00149104    0.01194686
     atom   37 type  3   force =     0.01325060    0.00148903    0.01194802
     atom   38 type  3   force =     0.01325052    0.00148428    0.01195085
     atom   39 type  3   force =     0.01325069    0.00148630    0.01194962
     atom   40 type  3   force =    -0.01325060   -0.00148903    0.01194802
     atom   41 type  3   force =    -0.01325052   -0.00148428    0.01195085
     atom   42 type  3   force =    -0.01325069   -0.00148630    0.01194962
     atom   43 type  3   force =    -0.01324949    0.00149186    0.01194628
     atom   44 type  3   force =    -0.01325093    0.00148505    0.01195051
     atom   45 type  3   force =    -0.01324938    0.00149104    0.01194686
     atom   46 type  3   force =     0.01325093   -0.00148505    0.01195051
     atom   47 type  3   force =     0.01324949   -0.00149186    0.01194628
     atom   48 type  3   force =     0.01325192   -0.00148226    0.01195248
     atom   49 type  4   force =     0.01290230   -0.01738253   -0.00205433
     atom   50 type  4   force =    -0.01290230    0.01738253   -0.00205433
     atom   51 type  4   force =    -0.01290318   -0.01738267   -0.00205430
     atom   52 type  4   force =     0.01290388    0.01738405   -0.00205431
     atom   53 type  4   force =     0.01290416   -0.01738367   -0.00205425
     atom   54 type  4   force =     0.01290264   -0.01738271   -0.00205392
     atom   55 type  4   force =     0.01290316   -0.01738306   -0.00205414
     atom   56 type  4   force =    -0.01290416    0.01738367   -0.00205425
     atom   57 type  4   force =    -0.01290264    0.01738271   -0.00205392
     atom   58 type  4   force =    -0.01290316    0.01738306   -0.00205414
     atom   59 type  4   force =    -0.01290372   -0.01738410   -0.00205429
     atom   60 type  4   force =    -0.01290327   -0.01738264   -0.00205388
     atom   61 type  4   force =    -0.01290388   -0.01738405   -0.00205431
     atom   62 type  4   force =     0.01290327    0.01738264   -0.00205388
     atom   63 type  4   force =     0.01290372    0.01738410   -0.00205429
     atom   64 type  4   force =     0.01290318    0.01738267   -0.00205430

     Total force =     0.120561     Total SCF correction =     0.000743
     Energy error            =      3.1E-02
     Gradient error          =      1.7E-02

     number of scf cycles    =   3
     number of bfgs steps    =   2

     energy   old            =   -1638.2520516682 Ry
     energy   new            =   -1638.2827838801 Ry

     CASE: energy  _new < energy  _old

     new trust radius        =       0.0506426874 bohr
     new conv_thr            =       0.0000010000 Ry


ATOMIC_POSITIONS (angstrom)
K1+           0.0000000000        0.0000000000        3.5231907341
K1+           2.6325025430        2.6100052288        1.7981887184
K1+           0.0000000000        5.2200000000        0.0731879105
K1+           5.2650000000        0.0000000000        0.0731854480
K1+           5.2650000000        5.2200000000        3.5231884063
K1+           2.6325020145        7.8299953258        5.2481878329
K1+           7.8974979855        2.6100046742        5.2481878329
K1+           7.8974974570        7.8299947712        1.7981887184
P5+           0.0000000000        0.0000000000       -0.0063438095
P5+           2.6325021509        2.6100045019        5.1686591621
P5+           0.0000000000        5.2200000000        3.4436615486
P5+           5.2650000000        0.0000000000        3.4436580308
P5+           5.2650000000        5.2200000000       -0.0063404132
P5+           2.6325012068        7.8299955250        1.7186602342
P5+           7.8974987932        2.6100044750        1.7186602342
P5+           7.8974978491        7.8299954981        5.1686591621
O2-           1.2257208110        0.4158183427        0.9389732479
O2-           9.3042791890       10.0241816573        0.9389732479
O2-           1.4067778277        3.0258196244        6.1139757468
O2-           3.8582234800        2.1941812588        6.1139740304
O2-           1.2257224444        5.6358204720        4.3889744476
O2-           6.4907236264        0.4158213668        4.3889755026
O2-           6.4907218637        5.6358205915        0.9389738311
O2-           9.3042775556        4.8041795280        4.3889744476
O2-           4.0392763736       10.0241786332        4.3889755026
O2-           4.0392781363        4.8041794085        0.9389738311
O2-           1.4067776649        8.2458184292        2.6639741384
O2-           6.6717777017        3.0258210562        2.6639746536
O2-           6.6717765200        8.2458187412        6.1139740304
O2-           3.8582222983        7.4141789438        2.6639746536
O2-           9.1232223351        2.1941815708        2.6639741384
O2-           9.1232221723        7.4141803756        6.1139757468
O2-          10.1753114066        1.2912054192        6.0314545509
O2-           0.3546885934        9.1487945808        6.0314545509
O2-           2.9871870807        3.9012053625        4.3064548141
O2-           2.2778144661        1.3187952493        4.3064558137
O2-          10.1753132232        6.5112050683        2.5814557447
O2-           4.9103131469        1.2912044429        2.5814564178
O2-           4.9103126562        6.5112043615        6.0314563671
O2-           0.3546867768        3.9287949317        2.5814557447
O2-           5.6196868531        9.1487955571        2.5814564178
O2-           5.6196873438        3.9287956385        6.0314563671
O2-           2.9871861362        9.1212046959        0.8564557883
O2-           8.2521864357        3.9012051389        0.8564549974
O2-           8.2521855339        9.1212047507        4.3064558137
O2-           2.2778135643        6.5387948611        0.8564549974
O2-           7.5428138638        1.3187953041        0.8564557883
O2-           7.5428129193        6.5387946375        4.3064548141
H1+           2.0342274154        9.9716069112        0.9104460933
H1+           8.4957725846        0.4683930888        0.9104460933
H1+           0.5982722676        2.1416086189        6.0854457022
H1+           4.6667283328        3.0783924029        6.0854463286
H1+           2.0342280991        4.7516080202        4.3604462304
H1+           7.2992269615        9.9716081530        4.3604464598
H1+           7.2992275254        4.7516082041        0.9104462467
H1+           8.4957719009        5.6883919798        4.3604462304
H1+           3.2307730385        0.4683918470        4.3604464598
H1+           3.2307724746        5.6883917959        0.9104462467
H1+           0.5982721297        7.3616070381        2.6354463042
H1+           5.8632730960        2.1416092540        2.6354466670
H1+           5.8632716672        7.3616075971        6.0854463286
H1+           4.6667269040        8.2983907460        2.6354466670
H1+           9.9317278703        3.0783929619        2.6354463042
H1+           9.9317277324        8.2983913811        6.0854457022



     Writing output data file ./outdir/KDP.save/
     NEW-OLD atomic charge density approx. for the potential

     Check: negative core charge=   -0.000074

     total cpu time spent up to now is     1048.0 secs

     Self-consistent Calculation

     iteration #  1     ecut=    25.00 Ry     beta= 0.70
     Davidson diagonalization with overlap
     ethr =  1.00E-06,  avg # of iterations = 12.5

     total cpu time spent up to now is     1102.3 secs

     total energy              =   -1638.29533998 Ry
     estimated scf accuracy    <       0.01514334 Ry

     iteration #  2     ecut=    25.00 Ry     beta= 0.70
     Davidson diagonalization with overlap
     ethr =  4.73E-06,  avg # of iterations =  2.5

     total cpu time spent up to now is     1124.5 secs

     total energy              =   -1638.29695272 Ry
     estimated scf accuracy    <       0.00357127 Ry

     iteration #  3     ecut=    25.00 Ry     beta= 0.70
     Davidson diagonalization with overlap
     ethr =  1.12E-06,  avg # of iterations =  2.0

     total cpu time spent up to now is     1147.0 secs

     total energy              =   -1638.29799701 Ry
     estimated scf accuracy    <       0.00079670 Ry

     iteration #  4     ecut=    25.00 Ry     beta= 0.70
     Davidson diagonalization with overlap
     ethr =  2.49E-07,  avg # of iterations =  2.0

     total cpu time spent up to now is     1167.6 secs

     total energy              =   -1638.29813825 Ry
     estimated scf accuracy    <       0.00000845 Ry

     iteration #  5     ecut=    25.00 Ry     beta= 0.70
     Davidson diagonalization with overlap
     ethr =  2.64E-09,  avg # of iterations =  4.0

     total cpu time spent up to now is     1195.9 secs

     total energy              =   -1638.29814209 Ry
     estimated scf accuracy    <       0.00000359 Ry

     iteration #  6     ecut=    25.00 Ry     beta= 0.70
     Davidson diagonalization with overlap
     ethr =  1.12E-09,  avg # of iterations =  2.0

     total cpu time spent up to now is     1217.1 secs

     End of self-consistent calculation

          k = 0.0000 0.0000 0.0000 ( 10821 PWs)   bands (ev):

   -23.1530 -23.1359 -23.1359 -23.1271 -23.1271 -23.1259 -23.0756 -23.0756
   -19.3656 -19.0953 -19.0953 -19.0921 -19.0921 -19.0603 -19.0602 -18.6510
   -17.8479 -17.8215 -17.8215 -17.7647 -17.7647 -17.7328 -17.7016 -17.7016
   -17.6312 -17.3737 -17.3737 -17.2592 -17.2592 -17.2342 -17.2342 -17.0701
   -17.0094 -17.0094 -17.0087 -16.9625 -16.9625 -16.9505 -16.9466 -16.9466
    -7.8816  -7.8816  -7.8736  -7.8736  -7.8708  -7.8708  -7.8674  -7.8615
    -7.8332  -7.8242  -7.8241  -7.8206  -7.8206  -7.7792  -7.7792  -7.7790
    -7.7715  -7.7715  -7.7710  -7.7697  -7.7697  -7.7513  -7.7513  -7.7252
    -6.3404  -5.8382  -5.8382  -5.7467  -5.7467  -5.7403  -5.7403  -4.9996
    -4.2819  -3.9780  -3.9780  -3.9503  -3.9503  -3.8173  -3.7580  -3.6598
    -3.6598  -2.7884  -2.7884  -2.7418  -2.7418  -2.7265  -2.7265  -1.9133
    -1.7807  -1.7353  -1.7353  -1.7207  -1.7207  -1.6589  -1.6589  -1.3978
    -1.2758  -0.9439  -0.8353  -0.8353  -0.8097  -0.8097  -0.8070  -0.8070
    -0.5277  -0.5277  -0.5133  -0.5133  -0.3692  -0.3692  -0.3642  -0.0597
     0.5398   0.6545   0.6545   0.9403   0.9403   0.9756   0.9756   1.1290
     1.1565   1.1565   1.1677   1.1677   1.3150   1.5967   1.6121   1.6121
     1.6762   1.6912   1.7087   1.7087   1.8065   1.8065   1.8744   1.9449
     1.9449   2.0203   2.0203   2.0941   2.0941   2.2434   2.2976   2.2977
     2.3456   2.3456   2.4191   2.5245   2.5245   2.6134   2.6134   2.7139
     2.7357   2.7856   2.7961   2.7961   2.8437   2.8437   2.8716   2.8716
     7.4735   9.8390   9.8390  10.0086  10.0086  10.1225  10.1225  10.4760
    10.4760  10.8982  10.8982  11.0388  11.1039  11.1039  11.1094  11.1608
    11.4431  11.4431  11.4603  11.5141  11.5141  11.6854  11.6854  11.8869
    11.8869  11.9035  11.9035  12.0956  12.0956  12.2997  12.3431  12.3431

          k = 0.0000 0.0000-0.7630 ( 10796 PWs)   bands (ev):

   -23.1303 -23.1303 -23.1087 -23.1087 -23.1056 -23.1056 -23.1056 -23.1056
   -19.2966 -19.2966 -19.0959 -19.0959 -19.0959 -19.0959 -18.8031 -18.8031
   -17.8466 -17.8466 -17.7651 -17.7651 -17.7297 -17.7297 -17.7297 -17.7297
   -17.4830 -17.4830 -17.3109 -17.3109 -17.3109 -17.3109 -17.0513 -17.0513
   -17.0300 -17.0300 -16.9610 -16.9610 -16.9610 -16.9610 -16.9449 -16.9449
    -7.8905  -7.8905  -7.8905  -7.8905  -7.8787  -7.8787  -7.8777  -7.8777
    -7.8212  -7.8212  -7.8212  -7.8212  -7.8134  -7.8134  -7.7715  -7.7715
    -7.7715  -7.7715  -7.7671  -7.7671  -7.7600  -7.7600  -7.7556  -7.7556
    -6.1721  -6.1721  -5.7210  -5.7210  -5.7210  -5.7210  -5.4465  -5.4465
    -3.9507  -3.9507  -3.9507  -3.9507  -3.7519  -3.7519  -3.6956  -3.6956
    -3.6762  -3.6762  -2.7045  -2.7045  -2.7045  -2.7045  -1.8607  -1.8607
    -1.8128  -1.8128  -1.7733  -1.7733  -1.7733  -1.7733  -1.7163  -1.7163
    -1.2117  -1.2117  -0.7728  -0.7728  -0.7427  -0.7427  -0.7427  -0.7427
    -0.4885  -0.4885  -0.4691  -0.4691  -0.4691  -0.4691  -0.2500  -0.2500
     0.7383   0.7383   0.7831   0.7831   1.0810   1.0810   1.0810   1.0810
     1.1901   1.1901   1.1901   1.1901   1.4494   1.4494   1.6144   1.6144
     1.7170   1.7170   1.7802   1.7802   1.7842   1.7842   1.7842   1.7842
     2.0237   2.0237   2.1126   2.1126   2.1126   2.1126   2.2950   2.2950
     2.4244   2.4244   2.6074   2.6074   2.6365   2.6365   2.6365   2.6365
     2.6791   2.6791   2.7633   2.7633   2.8109   2.8109   2.8109   2.8109
     8.8299   8.8299  10.1480  10.1480  10.1480  10.1480  10.5722  10.5722
    10.6388  10.6388  10.6388  10.6388  10.7267  10.7267  10.7513  10.7514
    11.3447  11.3447  11.5236  11.5236  11.5236  11.5236  11.8084  11.8084
    11.9306  11.9306  11.9306  11.9306  11.9864  11.9864  12.2534  12.2534

     the Fermi energy is     3.6051 ev

!    total energy              =   -1638.29814277 Ry
     estimated scf accuracy    <       0.00000011 Ry
     smearing contrib. (-TS)   =      -0.00000000 Ry
     internal energy E=F+TS    =   -1638.29814277 Ry

     The total energy is F=E-TS. E is the sum of the following terms:
     one-electron contribution =    -622.65369703 Ry
     hartree contribution      =     457.64813686 Ry
     xc contribution           =    -408.62267652 Ry
     ewald contribution        =   -1064.66990608 Ry

     convergence has been achieved in   6 iterations

     Forces acting on atoms (cartesian axes, Ry/au):

     atom    1 type  1   force =     0.00000000    0.00000000   -0.00576126
     atom    2 type  1   force =    -0.00000048   -0.00000021   -0.00576062
     atom    3 type  1   force =     0.00000000    0.00000000   -0.00576026
     atom    4 type  1   force =     0.00000000    0.00000000   -0.00576022
     atom    5 type  1   force =     0.00000000    0.00000000   -0.00576044
     atom    6 type  1   force =    -0.00000024   -0.00000002   -0.00576043
     atom    7 type  1   force =     0.00000024    0.00000002   -0.00576043
     atom    8 type  1   force =     0.00000048    0.00000021   -0.00576062
     atom    9 type  2   force =     0.00000000    0.00000000    0.01287595
     atom   10 type  2   force =    -0.00000443   -0.00000978    0.01287460
     atom   11 type  2   force =     0.00000000    0.00000000    0.01286921
     atom   12 type  2   force =     0.00000000    0.00000000    0.01288061
     atom   13 type  2   force =     0.00000000    0.00000000    0.01287356
     atom   14 type  2   force =    -0.00000286    0.00000966    0.01287178
     atom   15 type  2   force =     0.00000286   -0.00000966    0.01287178
     atom   16 type  2   force =     0.00000443    0.00000978    0.01287460
     atom   17 type  3   force =     0.00358494   -0.01121902   -0.01049064
     atom   18 type  3   force =    -0.00358494    0.01121902   -0.01049064
     atom   19 type  3   force =    -0.00358286   -0.01121879   -0.01049172
     atom   20 type  3   force =     0.00358418    0.01122014   -0.01049080
     atom   21 type  3   force =     0.00358562   -0.01122007   -0.01048975
     atom   22 type  3   force =     0.00358133   -0.01122022   -0.01049314
     atom   23 type  3   force =     0.00358516   -0.01122006   -0.01049016
     atom   24 type  3   force =    -0.00358562    0.01122007   -0.01048975
     atom   25 type  3   force =    -0.00358133    0.01122022   -0.01049314
     atom   26 type  3   force =    -0.00358516    0.01122006   -0.01049016
     atom   27 type  3   force =    -0.00358264   -0.01122038   -0.01049134
     atom   28 type  3   force =    -0.00358677   -0.01121829   -0.01048921
     atom   29 type  3   force =    -0.00358418   -0.01122014   -0.01049080
     atom   30 type  3   force =     0.00358677    0.01121829   -0.01048921
     atom   31 type  3   force =     0.00358264    0.01122038   -0.01049134
     atom   32 type  3   force =     0.00358286    0.01121879   -0.01049172
     atom   33 type  3   force =     0.00403317   -0.00612975    0.00637231
     atom   34 type  3   force =    -0.00403317    0.00612975    0.00637231
     atom   35 type  3   force =    -0.00403114   -0.00612658    0.00637081
     atom   36 type  3   force =     0.00403367    0.00613511    0.00637491
     atom   37 type  3   force =     0.00403234   -0.00613244    0.00637394
     atom   38 type  3   force =     0.00403281   -0.00612855    0.00637149
     atom   39 type  3   force =     0.00403216   -0.00613058    0.00637237
     atom   40 type  3   force =    -0.00403234    0.00613244    0.00637394
     atom   41 type  3   force =    -0.00403281    0.00612855    0.00637149
     atom   42 type  3   force =    -0.00403216    0.00613058    0.00637237
     atom   43 type  3   force =    -0.00403279   -0.00613484    0.00637505
     atom   44 type  3   force =    -0.00403230   -0.00612736    0.00637152
     atom   45 type  3   force =    -0.00403367   -0.00613511    0.00637491
     atom   46 type  3   force =     0.00403230    0.00612736    0.00637152
     atom   47 type  3   force =     0.00403279    0.00613484    0.00637505
     atom   48 type  3   force =     0.00403114    0.00612658    0.00637081
     atom   49 type  4   force =     0.00279426   -0.00657911    0.00056131
     atom   50 type  4   force =    -0.00279426    0.00657911    0.00056131
     atom   51 type  4   force =    -0.00279478   -0.00657956    0.00056105
     atom   52 type  4   force =     0.00279483    0.00657902    0.00056148
     atom   53 type  4   force =     0.00279401   -0.00657831    0.00056129
     atom   54 type  4   force =     0.00279499   -0.00657930    0.00056154
     atom   55 type  4   force =     0.00279443   -0.00657855    0.00056115
     atom   56 type  4   force =    -0.00279401    0.00657831    0.00056129
     atom   57 type  4   force =    -0.00279499    0.00657930    0.00056154
     atom   58 type  4   force =    -0.00279443    0.00657855    0.00056115
     atom   59 type  4   force =    -0.00279452   -0.00657879    0.00056139
     atom   60 type  4   force =    -0.00279498   -0.00657965    0.00056125
     atom   61 type  4   force =    -0.00279483   -0.00657902    0.00056148
     atom   62 type  4   force =     0.00279498    0.00657965    0.00056125
     atom   63 type  4   force =     0.00279452    0.00657879    0.00056139
     atom   64 type  4   force =     0.00279478    0.00657956    0.00056105

     Total force =     0.088915     Total SCF correction =     0.001269
     Energy error            =      1.5E-02
     Gradient error          =      1.3E-02

     number of scf cycles    =   4
     number of bfgs steps    =   3

     energy   old            =   -1638.2827838801 Ry
     energy   new            =   -1638.2981427679 Ry

     CASE: energy  _new < energy  _old

     new trust radius        =       0.0310784309 bohr
     new conv_thr            =       0.0000010000 Ry


ATOMIC_POSITIONS (angstrom)
K1+           0.0000000000        0.0000000000        3.5173129529
K1+           2.6325023240        2.6100055033        1.7923115108
K1+           0.0000000000        5.2200000000        0.0673109838
K1+           5.2650000000        0.0000000000        0.0673085258
K1+           5.2650000000        5.2200000000        3.5173112661
K1+           2.6325020507        7.8299947194        5.2423107232
K1+           7.8974979493        2.6100052806        5.2423107232
K1+           7.8974976760        7.8299944967        1.7923115108
P5+           0.0000000000        0.0000000000        0.0018044729
P5+           2.6325002653        2.6099998124        5.1768063565
P5+           0.0000000000        5.2200000000        3.4518064096
P5+           5.2650000000        0.0000000000        3.4518081049
P5+           5.2650000000        5.2200000000        0.0018065339
P5+           2.6325000922        7.8299999384        1.7268062992
P5+           7.8974999078        2.6100000616        1.7268062992
P5+           7.8974997347        7.8300001876        5.1768063565
O2-           1.2288633944        0.4112375796        0.9331476946
O2-           9.3011366056       10.0287624204        0.9331476946
O2-           1.4036366870        3.0212389488        6.1081498657
O2-           3.8613652013        2.1987630904        6.1081482917
O2-           1.2288648063        5.6312389637        4.3831493399
O2-           6.4938640520        0.4112397999        4.3831487519
O2-           6.4938640936        5.6312390353        0.9331484305
O2-           9.3011351937        4.8087610363        4.3831493399
O2-           4.0361359480       10.0287602001        4.3831487519
O2-           4.0361359064        4.8087609647        0.9331484305
O2-           1.4036365921        8.2412366514        2.6581485280
O2-           6.6686349927        3.0212403474        2.6581494414
O2-           6.6686347987        8.2412369096        6.1081482917
O2-           3.8613650073        7.4187596526        2.6581494414
O2-           9.1263634079        2.1987633486        2.6581485280
O2-           9.1263633130        7.4187610512        6.1081498657
O2-          10.1818945568        1.2939260633        6.0371245045
O2-           0.3481054432        9.1460739367        6.0371245045
O2-           2.9806052691        3.9039280997        4.3121240135
O2-           2.2843976644        1.3160766737        4.3121268383
O2-          10.1818955593        6.5139250583        2.5871263810
O2-           4.9168958343        1.2939262219        2.5871259090
O2-           4.9168950087        6.5139247362        6.0371264434
O2-           0.3481044407        3.9260749417        2.5871263810
O2-           5.6131041657        9.1460737781        2.5871259090
O2-           5.6131049913        3.9260752638        6.0371264434
O2-           2.9806037073        9.1239234158        0.8621268681
O2-           8.2456038294        3.9039278289        0.8621243574
O2-           8.2456023356        9.1239233263        4.3121268383
O2-           2.2843961706        6.5360721711        0.8621243574
O2-           7.5493962927        1.3160765842        0.8621268681
O2-           7.5493947309        6.5360719003        4.3121240135
H1+           2.0429150347        9.9576778704        0.9094666441
H1+           8.4870849653        0.4823221296        0.9094666441
H1+           0.5895841110        2.1276794268        6.0844660377
H1+           4.6754166633        3.0923214882        6.0844670355
H1+           2.0429159922        4.7376794009        4.3594668063
H1+           7.3079151946        9.9576789896        4.3594672820
H1+           7.3079155576        4.7376795007        0.9094667381
H1+           8.4870840078        5.7023205991        4.3594668063
H1+           3.2220848054        0.4823210104        4.3594672820
H1+           3.2220844424        5.7023204993        0.9094667381
H1+           0.5895839584        7.3476778844        2.6344669432
H1+           5.8545847523        2.1276799887        2.6344673397
H1+           5.8545833367        7.3476785118        6.0844670355
H1+           4.6754152477        8.3123200113        2.6344673397
H1+           9.9404160416        3.0923221156        2.6344669432
H1+           9.9404158890        8.3123205732        6.0844660377



     Writing output data file ./outdir/KDP.save/
     NEW-OLD atomic charge density approx. for the potential

     Check: negative core charge=   -0.000074

     total cpu time spent up to now is     1235.0 secs

     Self-consistent Calculation

     iteration #  1     ecut=    25.00 Ry     beta= 0.70
     Davidson diagonalization with overlap
     ethr =  1.00E-06,  avg # of iterations =  6.0

     total cpu time spent up to now is     1278.6 secs

     total energy              =   -1638.30550026 Ry
     estimated scf accuracy    <       0.00493322 Ry

     iteration #  2     ecut=    25.00 Ry     beta= 0.70
     Davidson diagonalization with overlap
     ethr =  1.54E-06,  avg # of iterations =  2.0

     total cpu time spent up to now is     1299.0 secs

     total energy              =   -1638.30601588 Ry
     estimated scf accuracy    <       0.00061206 Ry

     iteration #  3     ecut=    25.00 Ry     beta= 0.70
     Davidson diagonalization with overlap
     ethr =  1.91E-07,  avg # of iterations =  2.0

     total cpu time spent up to now is     1321.5 secs

     total energy              =   -1638.30616174 Ry
     estimated scf accuracy    <       0.00025505 Ry

     iteration #  4     ecut=    25.00 Ry     beta= 0.70
     Davidson diagonalization with overlap
     ethr =  7.97E-08,  avg # of iterations =  2.0

     total cpu time spent up to now is     1341.8 secs

     total energy              =   -1638.30621374 Ry
     estimated scf accuracy    <       0.00000425 Ry

     iteration #  5     ecut=    25.00 Ry     beta= 0.70
     Davidson diagonalization with overlap
     ethr =  1.33E-09,  avg # of iterations =  4.0

     total cpu time spent up to now is     1366.6 secs

     End of self-consistent calculation

          k = 0.0000 0.0000 0.0000 ( 10821 PWs)   bands (ev):

   -23.1721 -23.1548 -23.1548 -23.1461 -23.1461 -23.1447 -23.0946 -23.0946
   -19.3909 -19.1153 -19.1153 -19.1123 -19.1123 -19.0795 -19.0795 -18.6591
   -17.8648 -17.8426 -17.8426 -17.7774 -17.7774 -17.7549 -17.7168 -17.7168
   -17.6468 -17.3835 -17.3835 -17.2746 -17.2746 -17.2332 -17.2332 -17.0733
   -17.0041 -17.0041 -16.9969 -16.9662 -16.9662 -16.9571 -16.9446 -16.9446
    -7.8970  -7.8970  -7.8909  -7.8909  -7.8865  -7.8865  -7.8850  -7.8784
    -7.8503  -7.8411  -7.8411  -7.8385  -7.8385  -7.7972  -7.7972  -7.7961
    -7.7890  -7.7890  -7.7883  -7.7875  -7.7875  -7.7686  -7.7686  -7.7444
    -6.3768  -5.8616  -5.8616  -5.7684  -5.7684  -5.7659  -5.7659  -4.9773
    -4.3189  -4.0278  -4.0278  -3.9796  -3.9796  -3.8764  -3.7692  -3.6992
    -3.6992  -2.8050  -2.8049  -2.7354  -2.7354  -2.7248  -2.7248  -1.9005
    -1.8178  -1.7299  -1.7299  -1.7182  -1.7182  -1.6629  -1.6629  -1.3817
    -1.2856  -0.9197  -0.8317  -0.8317  -0.8162  -0.8162  -0.8055  -0.8055
    -0.5271  -0.5271  -0.4982  -0.4982  -0.3602  -0.3602  -0.3477  -0.0654
     0.5469   0.6524   0.6524   0.9426   0.9426   0.9827   0.9827   1.1079
     1.1449   1.1449   1.1560   1.1560   1.3105   1.5785   1.6091   1.6091
     1.6679   1.6989   1.6989   1.7018   1.7983   1.7983   1.8458   1.9453
     1.9453   2.0356   2.0356   2.0925   2.0925   2.2737   2.3023   2.3023
     2.3535   2.3535   2.4193   2.5260   2.5260   2.6139   2.6139   2.7093
     2.7369   2.8048   2.8095   2.8095   2.8429   2.8429   2.8736   2.8736
     7.4933   9.8540   9.8540  10.0311  10.0311  10.1417  10.1417  10.5099
    10.5099  10.9102  10.9102  11.0777  11.1003  11.1347  11.1347  11.2193
    11.4334  11.4334  11.4771  11.5513  11.5513  11.6996  11.6996  11.9083
    11.9083  11.9328  11.9328  12.1234  12.1234  12.3369  12.3369  12.3713

          k = 0.0000 0.0000-0.7630 ( 10796 PWs)   bands (ev):

   -23.1493 -23.1493 -23.1274 -23.1274 -23.1245 -23.1245 -23.1245 -23.1245
   -19.3202 -19.3202 -19.1155 -19.1155 -19.1155 -19.1155 -18.8154 -18.8154
[...]
O2-           4.0007762107       10.0605648873        4.3708938735
O2-           4.0007781106        4.8405665967        0.9208967436
O2-           1.3682830901        8.2094354447        2.6458882741
O2-           6.6332764070        2.9894341231        2.6458947714
O2-           6.6332804017        8.2094351156        6.0958918376
O2-           3.8967235930        7.4505658769        2.6458947714
O2-           9.1617169099        2.2305645553        2.6458882741
O2-           9.1617243761        7.4505643985        6.0958931149
O2-          10.1520686663        1.2674792188        6.0570602433
O2-           0.3779313337        9.1725207812        6.0570602433
O2-           3.0104336893        3.8774724711        4.3320606569
O2-           2.2545668399        1.3425217036        4.3320626446
O2-          10.1520670494        6.4874748993        2.6070613974
O2-           4.8870694825        1.2674744108        2.6070635469
O2-           4.8870685851        6.4874734750        6.0570633470
O2-           0.3779329506        3.9525251007        2.6070613974
O2-           5.6429305175        9.1725255892        2.6070635469
O2-           5.6429314149        3.9525265250        6.0570633470
O2-           3.0104361208        9.0974781078        0.8820592796
O2-           8.2754311398        3.8774741283        0.8820609032
O2-           8.2754331601        9.0974782964        4.3320626446
O2-           2.2545688602        6.5625258717        0.8820609032
O2-           7.5195638792        1.3425218922        0.8820592796
O2-           7.5195663107        6.5625275289        4.3320606569
H1+           2.0737423353        9.8951572084        0.8987741153
H1+           8.4562576647        0.5448427916        0.8987741153
H1+           0.5587572735        2.0651576610        6.0737735784
H1+           4.7062412080        3.1548432473        6.0737737072
H1+           2.0737468590        4.6751562362        4.3487721038
H1+           7.3387437933        9.8951558281        4.3487748192
H1+           7.3387449290        4.6751554762        0.8987732101
H1+           8.4562531410        5.7648437638        4.3487721038
H1+           3.1912562067        0.5448441719        4.3487748192
H1+           3.1912550710        5.7648445238        0.8987732101
H1+           0.5587594241        7.2851569697        2.6237729275
H1+           5.8237550962        2.0651564322        2.6237748887
H1+           5.8237587920        7.2851567527        6.0737737072
H1+           4.7062449038        8.3748435678        2.6237748887
H1+           9.9712405759        3.1548430303        2.6237729275
H1+           9.9712427265        8.3748423390        6.0737735784



     Writing output data file ./outdir/KDP.save/
     NEW-OLD atomic charge density approx. for the potential

     Check: negative core charge=   -0.000072

     total cpu time spent up to now is     3518.4 secs

     Self-consistent Calculation

     iteration #  1     ecut=    25.00 Ry     beta= 0.70
     Davidson diagonalization with overlap
     ethr =  1.00E-06,  avg # of iterations =  1.5

     Threshold (ethr) on eigenvalues was too large:
     Diagonalizing with lowered threshold

     Davidson diagonalization with overlap
     ethr =  3.02E-10,  avg # of iterations =  5.0

     total cpu time spent up to now is     3568.4 secs

     total energy              =   -1638.32896400 Ry
     estimated scf accuracy    <       0.00000006 Ry

     iteration #  2     ecut=    25.00 Ry     beta= 0.70
     Davidson diagonalization with overlap
     ethr =  1.85E-11,  avg # of iterations =  2.0

     total cpu time spent up to now is     3592.8 secs

     End of self-consistent calculation

          k = 0.0000 0.0000 0.0000 ( 10821 PWs)   bands (ev):

   -23.2080 -23.1903 -23.1903 -23.1820 -23.1820 -23.1805 -23.1303 -23.1303
   -19.4471 -19.1674 -19.1674 -19.1668 -19.1668 -19.1312 -19.1312 -18.7118
   -17.8810 -17.8810 -17.8551 -17.8444 -17.7738 -17.7738 -17.7713 -17.7713
   -17.6567 -17.3693 -17.3693 -17.3670 -17.3670 -17.2353 -17.2353 -17.0507
   -17.0459 -17.0048 -17.0048 -16.9946 -16.9888 -16.9888 -16.9858 -16.9858
    -7.9239  -7.9239  -7.9219  -7.9219  -7.9216  -7.9216  -7.9153  -7.9140
    -7.8834  -7.8739  -7.8739  -7.8733  -7.8733  -7.8323  -7.8323  -7.8267
    -7.8240  -7.8227  -7.8227  -7.8218  -7.8218  -7.8016  -7.8016  -7.7801
    -6.3745  -5.8514  -5.8514  -5.7639  -5.7639  -5.7538  -5.7538  -4.9304
    -4.3233  -4.0388  -4.0388  -4.0317  -4.0317  -3.8696  -3.8671  -3.7340
    -3.7340  -2.7867  -2.7867  -2.7796  -2.7796  -2.7005  -2.7005  -1.8871
    -1.8775  -1.7199  -1.7199  -1.7198  -1.7198  -1.6763  -1.6763  -1.3729
    -1.3429  -0.8917  -0.8917  -0.8649  -0.8341  -0.8341  -0.8090  -0.8090
    -0.5302  -0.5302  -0.4480  -0.4480  -0.4413  -0.4413  -0.2217  -0.1864
     0.5656   0.6487   0.6487   0.9541   0.9541   0.9741   0.9741   1.0471
     1.1058   1.1058   1.1209   1.1209   1.2754   1.5826   1.5927   1.5927
     1.6067   1.6859   1.7233   1.7233   1.7253   1.7253   1.7651   1.9359
     1.9359   2.0375   2.0375   2.0763   2.0764   2.3032   2.3032   2.3264
     2.3264   2.3789   2.3855   2.5566   2.5566   2.5712   2.5712   2.6619
     2.7132   2.7931   2.7931   2.8302   2.8302   2.8339   2.8569   2.8569
     7.5535  10.0101  10.0101  10.0449  10.0449  10.2253  10.2253  10.6752
    10.6752  11.1083  11.1083  11.1153  11.1343  11.1343  11.2973  11.3053
    11.4047  11.4047  11.7607  11.7607  11.7687  11.7878  11.7879  11.9757
    11.9758  11.9800  11.9801  12.0037  12.0037  12.3099  12.3742  12.3928

          k = 0.0000 0.0000-0.7630 ( 10796 PWs)   bands (ev):

   -23.1850 -23.1850 -23.1628 -23.1628 -23.1602 -23.1601 -23.1601 -23.1601
   -19.3758 -19.3758 -19.1681 -19.1681 -19.1681 -19.1681 -18.8637 -18.8637
   -17.8680 -17.8680 -17.8611 -17.8611 -17.7670 -17.7670 -17.7670 -17.7670
   -17.5049 -17.5049 -17.3620 -17.3620 -17.3620 -17.3620 -17.0404 -17.0404
   -17.0285 -17.0285 -17.0267 -17.0267 -16.9747 -16.9746 -16.9746 -16.9746
    -7.9356  -7.9356  -7.9356  -7.9356  -7.9282  -7.9282  -7.9280  -7.9280
    -7.8715  -7.8715  -7.8715  -7.8715  -7.8641  -7.8641  -7.8229  -7.8229
    -7.8229  -7.8229  -7.8191  -7.8191  -7.8091  -7.8091  -7.8075  -7.8075
    -6.1990  -6.1990  -5.7382  -5.7382  -5.7382  -5.7382  -5.4239  -5.4239
    -4.0219  -4.0219  -4.0219  -4.0219  -3.8050  -3.8049  -3.8007  -3.8007
    -3.6789  -3.6789  -2.7095  -2.7095  -2.7095  -2.7095  -1.8217  -1.8217
    -1.7960  -1.7960  -1.7941  -1.7941  -1.7724  -1.7724  -1.7724  -1.7724
    -1.2967  -1.2967  -0.7687  -0.7687  -0.7687  -0.7687  -0.7466  -0.7466
    -0.4721  -0.4721  -0.4720  -0.4720  -0.3597  -0.3597  -0.3545  -0.3545
     0.7166   0.7166   0.7354   0.7355   1.0363   1.0363   1.0363   1.0363
     1.1848   1.1848   1.1848   1.1849   1.4691   1.4692   1.5997   1.5997
     1.7112   1.7112   1.7181   1.7181   1.7638   1.7638   1.7638   1.7638
     1.9627   1.9627   2.1022   2.1022   2.1022   2.1022   2.3785   2.3785
     2.4000   2.4000   2.6281   2.6281   2.6539   2.6539   2.6539   2.6539
     2.6807   2.6807   2.6836   2.6836   2.7926   2.7926   2.7927   2.7927
     8.9293   8.9293  10.3092  10.3092  10.3092  10.3092  10.6958  10.6958
    10.6958  10.6958  10.7810  10.7810  10.7943  10.7943  10.9049  10.9049
    11.5087  11.5087  11.6704  11.6704  11.6704  11.6704  11.8065  11.8066
    11.8784  11.8784  11.8784  11.8784  12.2173  12.2173  12.2313  12.2313

     the Fermi energy is     3.6287 ev

!    total energy              =   -1638.32896401 Ry
     estimated scf accuracy    <          9.9E-09 Ry
     smearing contrib. (-TS)   =      -0.00000000 Ry
     internal energy E=F+TS    =   -1638.32896401 Ry

     The total energy is F=E-TS. E is the sum of the following terms:
     one-electron contribution =    -632.42530285 Ry
     hartree contribution      =     462.45943056 Ry
     xc contribution           =    -409.01911654 Ry
     ewald contribution        =   -1059.34397518 Ry

     convergence has been achieved in   2 iterations

     Forces acting on atoms (cartesian axes, Ry/au):

     atom    1 type  1   force =     0.00000000    0.00000000    0.00007649
     atom    2 type  1   force =    -0.00000140    0.00000732    0.00007258
     atom    3 type  1   force =     0.00000000    0.00000000    0.00007599
     atom    4 type  1   force =     0.00000000    0.00000000    0.00007770
     atom    5 type  1   force =     0.00000000    0.00000000    0.00007479
     atom    6 type  1   force =    -0.00000305   -0.00000651    0.00007281
     atom    7 type  1   force =     0.00000305    0.00000651    0.00007281
     atom    8 type  1   force =     0.00000140   -0.00000732    0.00007258
     atom    9 type  2   force =     0.00000000    0.00000000   -0.00004181
     atom   10 type  2   force =    -0.00002748    0.00000369   -0.00001092
     atom   11 type  2   force =     0.00000000    0.00000000   -0.00002130
     atom   12 type  2   force =     0.00000000    0.00000000    0.00000724
     atom   13 type  2   force =     0.00000000    0.00000000    0.00000147
     atom   14 type  2   force =     0.00004341   -0.00000381   -0.00002682
     atom   15 type  2   force =    -0.00004341    0.00000381   -0.00002682
     atom   16 type  2   force =     0.00002748   -0.00000369   -0.00001092
     atom   17 type  3   force =     0.00003807   -0.00000368   -0.00002590
     atom   18 type  3   force =    -0.00003807    0.00000368   -0.00002590
     atom   19 type  3   force =    -0.00002000   -0.00000939   -0.00004012
     atom   20 type  3   force =     0.00004428    0.00000457   -0.00002767
     atom   21 type  3   force =     0.00003815   -0.00000589   -0.00003107
     atom   22 type  3   force =     0.00002601   -0.00000906   -0.00003882
     atom   23 type  3   force =     0.00003089   -0.00000799   -0.00003705
     atom   24 type  3   force =    -0.00003815    0.00000589   -0.00003107
     atom   25 type  3   force =    -0.00002601    0.00000906   -0.00003882
     atom   26 type  3   force =    -0.00003089    0.00000799   -0.00003705
     atom   27 type  3   force =    -0.00005361   -0.00000097   -0.00001905
     atom   28 type  3   force =    -0.00002212   -0.00001150   -0.00003945
     atom   29 type  3   force =    -0.00004428   -0.00000457   -0.00002767
     atom   30 type  3   force =     0.00002212    0.00001150   -0.00003945
     atom   31 type  3   force =     0.00005361    0.00000097   -0.00001905
     atom   32 type  3   force =     0.00002000    0.00000939   -0.00004012
     atom   33 type  3   force =     0.00000462   -0.00002266   -0.00001389
     atom   34 type  3   force =    -0.00000462    0.00002266   -0.00001389
     atom   35 type  3   force =    -0.00000169   -0.00001121   -0.00002184
     atom   36 type  3   force =     0.00000639    0.00001307   -0.00001951
     atom   37 type  3   force =     0.00000902   -0.00000845   -0.00001959
     atom   38 type  3   force =    -0.00000017   -0.00000941   -0.00002592
     atom   39 type  3   force =     0.00000512   -0.00000486   -0.00002491
     atom   40 type  3   force =    -0.00000902    0.00000845   -0.00001959
     atom   41 type  3   force =     0.00000017    0.00000941   -0.00002592
     atom   42 type  3   force =    -0.00000512    0.00000486   -0.00002491
     atom   43 type  3   force =    -0.00001146   -0.00001468   -0.00001514
     atom   44 type  3   force =    -0.00000075   -0.00001443   -0.00001961
     atom   45 type  3   force =    -0.00000639   -0.00001307   -0.00001951
     atom   46 type  3   force =     0.00000075    0.00001443   -0.00001961
     atom   47 type  3   force =     0.00001146    0.00001468   -0.00001514
     atom   48 type  3   force =     0.00000169    0.00001121   -0.00002184
     atom   49 type  4   force =     0.00001220    0.00000189    0.00002233
     atom   50 type  4   force =    -0.00001220   -0.00000189    0.00002233
     atom   51 type  4   force =    -0.00000618    0.00000653    0.00002306
     atom   52 type  4   force =     0.00000997   -0.00000325    0.00002384
     atom   53 type  4   force =     0.00000536    0.00000620    0.00002366
     atom   54 type  4   force =     0.00000763    0.00000621    0.00002302
     atom   55 type  4   force =     0.00000498    0.00000697    0.00002416
     atom   56 type  4   force =    -0.00000536   -0.00000620    0.00002366
     atom   57 type  4   force =    -0.00000763   -0.00000621    0.00002302
     atom   58 type  4   force =    -0.00000498   -0.00000697    0.00002416
     atom   59 type  4   force =    -0.00001359    0.00000025    0.00002372
     atom   60 type  4   force =    -0.00000182    0.00000979    0.00002283
     atom   61 type  4   force =    -0.00000997    0.00000325    0.00002384
     atom   62 type  4   force =     0.00000182   -0.00000979    0.00002283
     atom   63 type  4   force =     0.00001359   -0.00000025    0.00002372
     atom   64 type  4   force =     0.00000618   -0.00000653    0.00002306

     Total force =     0.000337     Total SCF correction =     0.000219
     SCF correction compared to forces is large: reduce conv_thr to get better values
     Energy error            =      3.0E-07
     Gradient error          =      7.8E-05

     bfgs converged in  20 scf cycles and  19 bfgs steps
     (criteria: energy <  1.0E-05 Ry, force <  1.0E-04 Ry/Bohr)

     End of BFGS Geometry Optimization

     Final energy   =   -1638.3289640067 Ry

     File ./outdir/KDP.bfgs deleted, as requested
Begin final coordinates

ATOMIC_POSITIONS (angstrom)
K1+           0.0000000000        0.0000000000        3.4877322604
K1+           2.6324924196        2.6099873057        1.7627595400
K1+           0.0000000000        5.2200000000        0.0377427296
K1+           5.2650000000        0.0000000000        0.0377197388
K1+           5.2650000000        5.2200000000        3.4877448282
K1+           2.6324993821        7.8300135492        5.2127576601
K1+           7.8975006179        2.6099864508        5.2127576601
K1+           7.8975075804        7.8300126943        1.7627595400
P5+           0.0000000000        0.0000000000        0.0374036734
P5+           2.6325083746        2.6099993077        5.2123956813
P5+           0.0000000000        5.2200000000        3.4874004488
P5+           5.2650000000        0.0000000000        3.4873886734
P5+           5.2650000000        5.2200000000        0.0373940596
P5+           2.6324859534        7.8300013557        1.7624002832
P5+           7.8975140466        2.6099986443        1.7624002832
P5+           7.8974916254        7.8300006923        5.2123956813
O2-           1.2642209547        0.3794324085        0.9208901740
O2-           9.2657790453       10.0605675915        0.9208901740
O2-           1.3682756239        2.9894356015        6.0958931149
O2-           3.8967195983        2.2305648844        6.0958918376
O2-           1.2642213387        5.5994317184        4.3708934714
O2-           6.5292237893        0.3794351127        4.3708938735
O2-           6.5292218894        5.5994334033        0.9208967436
O2-           9.2657786613        4.8405682816        4.3708934714
O2-           4.0007762107       10.0605648873        4.3708938735
O2-           4.0007781106        4.8405665967        0.9208967436
O2-           1.3682830901        8.2094354447        2.6458882741
O2-           6.6332764070        2.9894341231        2.6458947714
O2-           6.6332804017        8.2094351156        6.0958918376
O2-           3.8967235930        7.4505658769        2.6458947714
O2-           9.1617169099        2.2305645553        2.6458882741
O2-           9.1617243761        7.4505643985        6.0958931149
O2-          10.1520686663        1.2674792188        6.0570602433
O2-           0.3779313337        9.1725207812        6.0570602433
O2-           3.0104336893        3.8774724711        4.3320606569
O2-           2.2545668399        1.3425217036        4.3320626446
O2-          10.1520670494        6.4874748993        2.6070613974
O2-           4.8870694825        1.2674744108        2.6070635469
O2-           4.8870685851        6.4874734750        6.0570633470
O2-           0.3779329506        3.9525251007        2.6070613974
O2-           5.6429305175        9.1725255892        2.6070635469
O2-           5.6429314149        3.9525265250        6.0570633470
O2-           3.0104361208        9.0974781078        0.8820592796
O2-           8.2754311398        3.8774741283        0.8820609032
O2-           8.2754331601        9.0974782964        4.3320626446
O2-           2.2545688602        6.5625258717        0.8820609032
O2-           7.5195638792        1.3425218922        0.8820592796
O2-           7.5195663107        6.5625275289        4.3320606569
H1+           2.0737423353        9.8951572084        0.8987741153
H1+           8.4562576647        0.5448427916        0.8987741153
H1+           0.5587572735        2.0651576610        6.0737735784
H1+           4.7062412080        3.1548432473        6.0737737072
H1+           2.0737468590        4.6751562362        4.3487721038
H1+           7.3387437933        9.8951558281        4.3487748192
H1+           7.3387449290        4.6751554762        0.8987732101
H1+           8.4562531410        5.7648437638        4.3487721038
H1+           3.1912562067        0.5448441719        4.3487748192
H1+           3.1912550710        5.7648445238        0.8987732101
H1+           0.5587594241        7.2851569697        2.6237729275
H1+           5.8237550962        2.0651564322        2.6237748887
H1+           5.8237587920        7.2851567527        6.0737737072
H1+           4.7062449038        8.3748435678        2.6237748887
H1+           9.9712405759        3.1548430303        2.6237729275
H1+           9.9712427265        8.3748423390        6.0737735784
End final coordinates



     Writing output data file ./outdir/KDP.save/

     init_run     :     37.42s CPU     37.73s WALL (       1 calls)
     electrons    :   3150.87s CPU   3158.11s WALL (      20 calls)
     update_pot   :    103.20s CPU    103.57s WALL (      19 calls)
     forces       :    305.64s CPU    306.68s WALL (      20 calls)

     Called by init_run:
     wfcinit      :     21.47s CPU     21.69s WALL (       1 calls)
     potinit      :      6.36s CPU      6.42s WALL (       1 calls)
     hinit0       :      9.33s CPU      9.34s WALL (       1 calls)

     Called by electrons:
     c_bands      :   3048.30s CPU   3054.14s WALL (     107 calls)
     sum_band     :     77.45s CPU     77.63s WALL (     107 calls)
     v_of_rho     :     25.79s CPU     27.28s WALL (     119 calls)
     mix_rho      :      1.99s CPU      2.03s WALL (     107 calls)

     Called by c_bands:
     init_us_2    :     11.72s CPU     11.86s WALL (     470 calls)
     cegterg      :   2979.57s CPU   2985.29s WALL (     214 calls)

     Called by *egterg:
     cdiaghg      :    103.75s CPU    103.78s WALL (     885 calls)
     h_psi        :   1742.59s CPU   1746.46s WALL (     941 calls)
     g_psi        :      4.61s CPU      4.61s WALL (     725 calls)

     Called by h_psi:
     h_psi:calbec :    708.02s CPU    708.82s WALL (     941 calls)
     vloc_psi     :    365.22s CPU    366.15s WALL (     941 calls)
     add_vuspsi   :    666.83s CPU    667.27s WALL (     941 calls)

     General routines
     calbec       :    886.43s CPU    887.38s WALL (    1101 calls)
     fft          :     10.58s CPU     10.67s WALL (    1615 calls)
     ffts         :      0.42s CPU      0.42s WALL (     226 calls)
     fftw         :    370.51s CPU    371.50s WALL (  272510 calls)
     interpolate  :      1.16s CPU      1.17s WALL (     119 calls)

     Parallel routines

     PWSCF        :  59m59.50s CPU      1h 0m WALL


   This run was terminated on:  22:28:29  25Aug2023            

=------------------------------------------------------------------------------=
   JOB DONE.
=------------------------------------------------------------------------------=
