
     Program PWSCF v.6.7MaX starts on 27Aug2023 at 12:28:27 

     This program is part of the open-source Quantum ESPRESSO suite
     for quantum simulation of materials; please cite
         "P. Giannozzi et al., J. Phys.:Condens. Matter 21 395502 (2009);
         "P. Giannozzi et al., J. Phys.:Condens. Matter 29 465901 (2017);
          URL http://www.quantum-espresso.org", 
     in publications or presentations arising from this work. More details at
     http://www.quantum-espresso.org/quote

     Parallel version (MPI), running on     1 processors

     MPI processes distributed on     1 nodes
     Waiting for input...
     Reading input from standard input

     Current dimensions of program PWSCF are:
     Max number of different atomic species (ntypx) = 10
     Max number of k-points (npk) =  40000
     Max angular momentum in pseudopotentials (lmaxx) =  3
     Message from routine iosys:
     wrong startingpot: use default (2)

     Atomic positions and unit cell read from directory:
     ./outdir/KDP.save/
     Atomic positions from file used, from input discarded

     Message from routine read_pp_mesh:
     mesh size missing, using the one in header
     Message from routine read_pp_mesh:
     mesh size missing, using the one in header
     Message from routine read_pp_mesh:
     mesh size missing, using the one in header
     Message from routine read_pp_mesh:
     mesh size missing, using the one in header

     Subspace diagonalization in iterative solution of the eigenvalue problem:
     a serial algorithm will be used

     Found symmetry operation: I + (  0.0000 -0.5000  0.5000)
     This is a supercell, fractional translations are disabled

     G-vector sticks info
     --------------------
     sticks:   dense  smooth     PW     G-vecs:    dense   smooth      PW
     Sum        7033    3133    877               291743    86489   12745



     bravais-lattice index     =            8
     lattice parameter (alat)  =      19.8988  a.u.
     unit-cell volume          =    5118.8754 (a.u.)^3
     number of atoms/cell      =           64
     number of atomic types    =            4
     number of electrons       =       320.00
     number of Kohn-Sham states=          192
     kinetic-energy cutoff     =      25.0000  Ry
     charge density cutoff     =     225.0000  Ry
     Exchange-correlation= PBE
                           (   1   4   3   4   0   0   0)

     celldm(1)=  19.898816  celldm(2)=   0.991453  celldm(3)=   0.655271
     celldm(4)=   0.000000  celldm(5)=   0.000000  celldm(6)=   0.000000

     crystal axes: (cart. coord. in units of alat)
               a(1) = (   1.000000   0.000000   0.000000 )  
               a(2) = (   0.000000   0.991453   0.000000 )  
               a(3) = (   0.000000   0.000000   0.655271 )  

     reciprocal axes: (cart. coord. in units 2 pi/alat)
               b(1) = (  1.000000  0.000000  0.000000 )  
               b(2) = (  0.000000  1.008621  0.000000 )  
               b(3) = (  0.000000  0.000000  1.526087 )  


     PseudoPot. # 1 for K  read from file:
     /home/johnpaul/JP_QME/Dojo_Pseudo/nc-sr-05_pbe_stringent_upf/K.upf
     MD5 check sum: 0aa97b2c023445f040759afc9fdb6c80
     Pseudo is Norm-conserving + core correction, Zval =  9.0
     Generated using ONCVPSP code by D. R. Hamann
     Using radial grid of 2222 points,  6 beta functions with: 
                l(1) =   0
                l(2) =   0
                l(3) =   1
                l(4) =   1
                l(5) =   2
                l(6) =   2

     PseudoPot. # 2 for P  read from file:
     /home/johnpaul/JP_QME/Dojo_Pseudo/nc-sr-05_pbe_stringent_upf/P.upf
     MD5 check sum: e25a93595ed76be8dfbf715c9c2e8dc8
     Pseudo is Norm-conserving + core correction, Zval =  5.0
     Generated using ONCVPSP code by D. R. Hamann
     Using radial grid of 1298 points,  6 beta functions with: 
                l(1) =   0
                l(2) =   0
                l(3) =   1
                l(4) =   1
                l(5) =   2
                l(6) =   2

     PseudoPot. # 3 for O  read from file:
     /home/johnpaul/JP_QME/Dojo_Pseudo/nc-sr-05_pbe_stringent_upf/O.upf
     MD5 check sum: 9db02a5ece9d56b81b65a73f8163743d
     Pseudo is Norm-conserving + core correction, Zval =  6.0
     Generated using ONCVPSP code by D. R. Hamann
     Using radial grid of  936 points,  5 beta functions with: 
                l(1) =   0
                l(2) =   0
                l(3) =   1
                l(4) =   1
                l(5) =   2

     PseudoPot. # 4 for H  read from file:
     /home/johnpaul/JP_QME/Dojo_Pseudo/nc-sr-05_pbe_stringent_upf/H.upf
     MD5 check sum: e96aa7e3e4a958db16958554ea960e2a
     Pseudo is Norm-conserving, Zval =  1.0
     Generated using ONCVPSP code by D. R. Hamann
     Using radial grid of 1166 points,  3 beta functions with: 
                l(1) =   0
                l(2) =   0
                l(3) =   1

     atomic species   valence    mass     pseudopotential
        K1+            9.00    39.09830     K ( 1.00)
        P5+            5.00    30.97376     P ( 1.00)
        O2-            6.00    15.99940     O ( 1.00)
        H1+            1.00     1.00794     H ( 1.00)

      2 Sym. Ops. (no inversion) found



   Cartesian axes

     site n.     atom                  positions (alat units)
         1           K1+ tau(   1) = (   0.0000000   0.0000000   0.3354986  )
         2           K1+ tau(   2) = (   0.2500000   0.2478632   0.1716809  )
         3           K1+ tau(   3) = (   0.0000000   0.4957265   0.0078632  )
         4           K1+ tau(   4) = (   0.5000000   0.0000000   0.0078632  )
         5           K1+ tau(   5) = (   0.5000000   0.4957265   0.3354986  )
         6           K1+ tau(   6) = (   0.2500000   0.7435897   0.4993162  )
         7           K1+ tau(   7) = (   0.7500000   0.2478632   0.4993162  )
         8           K1+ tau(   8) = (   0.7500000   0.7435897   0.1716809  )
         9           P5+ tau(   9) = (   0.0000000   0.0000000   0.0000000  )
        10           P5+ tau(  10) = (   0.2500000   0.2478632   0.4914530  )
        11           P5+ tau(  11) = (   0.0000000   0.4957265   0.3276353  )
        12           P5+ tau(  12) = (   0.5000000   0.0000000   0.3276353  )
        13           P5+ tau(  13) = (   0.5000000   0.4957265   0.0000000  )
        14           P5+ tau(  14) = (   0.2500000   0.7435897   0.1638177  )
        15           P5+ tau(  15) = (   0.7500000   0.2478632   0.1638177  )
        16           P5+ tau(  16) = (   0.7500000   0.7435897   0.4914530  )
        17           O2- tau(  17) = (   0.1160000   0.0342051   0.0858405  )
        18           O2- tau(  18) = (   0.8840000   0.9572479   0.0858405  )
        19           O2- tau(  19) = (   0.1340000   0.2820684   0.5772934  )
        20           O2- tau(  20) = (   0.3660000   0.2136581   0.5772934  )
        21           O2- tau(  21) = (   0.1160000   0.5299316   0.4134758  )
        22           O2- tau(  22) = (   0.6160000   0.0342051   0.4134758  )
        23           O2- tau(  23) = (   0.6160000   0.5299316   0.0858405  )
        24           O2- tau(  24) = (   0.8840000   0.4615214   0.4134758  )
        25           O2- tau(  25) = (   0.3840000   0.9572479   0.4134758  )
        26           O2- tau(  26) = (   0.3840000   0.4615214   0.0858405  )
        27           O2- tau(  27) = (   0.1340000   0.7777949   0.2496581  )
        28           O2- tau(  28) = (   0.6340000   0.2820684   0.2496581  )
        29           O2- tau(  29) = (   0.6340000   0.7777949   0.5772934  )
        30           O2- tau(  30) = (   0.3660000   0.7093846   0.2496581  )
        31           O2- tau(  31) = (   0.8660000   0.2136581   0.2496581  )
        32           O2- tau(  32) = (   0.8660000   0.7093846   0.5772934  )
        33           O2- tau(  33) = (   0.9655000   0.1150085   0.5743447  )
        34           O2- tau(  34) = (   0.0345000   0.8764444   0.5743447  )
        35           O2- tau(  35) = (   0.2845000   0.3628718   0.4105271  )
        36           O2- tau(  36) = (   0.2155000   0.1328547   0.4105271  )
        37           O2- tau(  37) = (   0.9655000   0.6107350   0.2467094  )
        38           O2- tau(  38) = (   0.4655000   0.1150085   0.2467094  )
        39           O2- tau(  39) = (   0.4655000   0.6107350   0.5743447  )
        40           O2- tau(  40) = (   0.0345000   0.3807179   0.2467094  )
        41           O2- tau(  41) = (   0.5345000   0.8764444   0.2467094  )
        42           O2- tau(  42) = (   0.5345000   0.3807179   0.5743447  )
        43           O2- tau(  43) = (   0.2845000   0.8585983   0.0828917  )
        44           O2- tau(  44) = (   0.7845000   0.3628718   0.0828917  )
        45           O2- tau(  45) = (   0.7845000   0.8585983   0.4105271  )
        46           O2- tau(  46) = (   0.2155000   0.6285812   0.0828917  )
        47           O2- tau(  47) = (   0.7155000   0.1328547   0.0828917  )
        48           O2- tau(  48) = (   0.7155000   0.6285812   0.4105271  )
        49           H1+ tau(  49) = (   0.1880000   0.9542735   0.0874786  )
        50           H1+ tau(  50) = (   0.8120000   0.0371795   0.0874786  )
        51           H1+ tau(  51) = (   0.0620000   0.2106838   0.5789316  )
        52           H1+ tau(  52) = (   0.4380000   0.2850427   0.5789316  )
        53           H1+ tau(  53) = (   0.1880000   0.4585470   0.4151140  )
        54           H1+ tau(  54) = (   0.6880000   0.9542735   0.4151140  )
        55           H1+ tau(  55) = (   0.6880000   0.4585470   0.0874786  )
        56           H1+ tau(  56) = (   0.8120000   0.5329060   0.4151140  )
        57           H1+ tau(  57) = (   0.3120000   0.0371795   0.4151140  )
        58           H1+ tau(  58) = (   0.3120000   0.5329060   0.0874786  )
        59           H1+ tau(  59) = (   0.0620000   0.7064103   0.2512963  )
        60           H1+ tau(  60) = (   0.5620000   0.2106838   0.2512963  )
        61           H1+ tau(  61) = (   0.5620000   0.7064103   0.5789316  )
        62           H1+ tau(  62) = (   0.4380000   0.7807692   0.2512963  )
        63           H1+ tau(  63) = (   0.9380000   0.2850427   0.2512963  )
        64           H1+ tau(  64) = (   0.9380000   0.7807692   0.5789316  )

     number of k points=     4 (tetrahedron method)
                       cart. coord. in units 2pi/alat
        k(    1) = (   0.0000000   0.0000000   0.0000000), wk =   0.5000000
        k(    2) = (   0.0000000   0.0000000  -0.7630435), wk =   0.5000000
        k(    3) = (   0.0000000  -0.5043103   0.0000000), wk =   0.5000000
        k(    4) = (   0.0000000  -0.5043103  -0.7630435), wk =   0.5000000

     Dense  grid:   291743 G-vectors     FFT dimensions: (  96,  96,  64)

     Smooth grid:    86489 G-vectors     FFT dimensions: (  64,  64,  45)

     Estimated max dynamical RAM per process >     408.17 MB

     Check: negative core charge=   -0.000073

     The potential is recalculated from file :
     ./outdir/KDP.save/charge-density

     Starting wfcs are  216 randomized atomic wfcs

     Band Structure Calculation
     Davidson diagonalization with overlap
     c_bands:  2 eigenvalues not converged

     ethr =  3.13E-10,  avg # of iterations = 75.8

     total cpu time spent up to now is      600.6 secs

     End of band structure calculation

          k = 0.0000 0.0000 0.0000 ( 10821 PWs)   bands (ev):

   -23.2987 -23.2811 -23.2811 -23.2720 -23.2720 -23.2713 -23.2208 -23.2208
   -19.9525 -19.7307 -19.7306 -19.7296 -19.7296 -19.7022 -19.7022 -19.4120
   -18.5067 -18.4470 -18.4470 -18.4369 -18.4369 -18.4049 -18.4049 -18.3800
   -17.6864 -17.4637 -17.4637 -17.4036 -17.4035 -17.4013 -17.4013 -17.2152
   -16.9747 -16.9257 -16.9256 -16.8948 -16.8947 -16.8882 -16.8882 -16.8663
    -8.0156  -8.0156  -8.0128  -8.0128  -8.0109  -8.0062  -8.0062  -8.0035
    -7.9702  -7.9702  -7.9634  -7.9503  -7.9503  -7.9162  -7.9136  -7.9136
    -7.9060  -7.9060  -7.9023  -7.9006  -7.9006  -7.8877  -7.8877  -7.8661
    -6.6145  -6.1472  -6.1472  -6.1050  -6.1049  -6.0674  -6.0674  -5.6408
    -4.5085  -4.4931  -4.4931  -4.3711  -4.3710  -4.1861  -4.1861  -4.0361
    -3.8859  -2.8958  -2.8958  -2.7515  -2.7515  -2.6965  -2.6965  -2.3239
    -1.9445  -1.9445  -1.8403  -1.8403  -1.8174  -1.8174  -1.7174  -1.7064
    -1.3718  -1.0390  -1.0390  -0.8893  -0.8893  -0.8237  -0.7816  -0.7816
    -0.5357  -0.5357  -0.5048  -0.5048  -0.3449  -0.2916  -0.2916  -0.1026
     0.2638   0.3765   0.3766   0.6020   0.6020   0.6106   0.6106   0.9046
     0.9046   1.0440   1.1051   1.1409   1.1409   1.1574   1.2156   1.4478
     1.4478   1.4708   1.4708   1.5044   1.5044   1.5060   1.5377   1.5377
     2.1852   2.1937   2.1937   2.3273   2.3273   2.4142   2.4657   2.4657
     2.4724   2.4724   2.4788   2.4798   2.4798   2.5377   2.6095   2.6095
     2.8291   2.8291   2.8442   2.9355   2.9356   3.0299   3.0299   3.0363
     7.6971  10.0690  10.0690  10.1333  10.1333  10.4818  10.4818  10.9595
    11.0398  11.0398  11.2474  11.2474  11.3077  11.3077  11.4133  11.4133
    11.5558  11.5690  11.9551  11.9551  12.0401  12.0401  12.0741  12.0741
    12.1745  12.2529  12.2529  12.3294  12.3530  12.3530  12.4874  12.4874

          k = 0.0000 0.0000-0.7630 ( 10796 PWs)   bands (ev):

   -23.2756 -23.2755 -23.2531 -23.2531 -23.2507 -23.2506 -23.2506 -23.2506
   -19.8970 -19.8970 -19.7323 -19.7322 -19.7322 -19.7322 -19.5117 -19.5116
   -18.4889 -18.4888 -18.4149 -18.4149 -18.4148 -18.4147 -18.4039 -18.4038
   -17.5895 -17.5895 -17.4210 -17.4210 -17.4210 -17.4209 -17.2516 -17.2515
   -16.9428 -16.9427 -16.8996 -16.8995 -16.8994 -16.8994 -16.8743 -16.8742
    -8.0273  -8.0273  -8.0273  -8.0273  -8.0238  -8.0238  -8.0160  -8.0160
    -7.9565  -7.9565  -7.9565  -7.9565  -7.9466  -7.9466  -7.9087  -7.9087
    -7.9045  -7.9045  -7.9045  -7.9044  -7.8989  -7.8988  -7.8893  -7.8893
    -6.4508  -6.4507  -6.0580  -6.0580  -6.0580  -6.0579  -5.8575  -5.8575
    -4.4088  -4.4088  -4.4036  -4.4036  -4.4036  -4.4035  -4.0587  -4.0587
    -3.5253  -3.5253  -2.7399  -2.7399  -2.7399  -2.7399  -2.1391  -2.1390
    -2.0288  -2.0288  -1.9070  -1.9070  -1.9070  -1.9070  -1.6959  -1.6959
    -1.2896  -1.2895  -0.9085  -0.9085  -0.9085  -0.9085  -0.7730  -0.7730
    -0.4787  -0.4787  -0.3976  -0.3976  -0.3975  -0.3975  -0.2688  -0.2687
     0.4445   0.4445   0.5644   0.5645   0.7375   0.7375   0.7375   0.7376
     1.0054   1.0054   1.0055   1.0055   1.2831   1.2832   1.3332   1.3332
     1.3442   1.3442   1.5257   1.5257   1.5257   1.5257   1.5472   1.5472
     2.2170   2.2171   2.2898   2.2898   2.2899   2.2899   2.4314   2.4314
     2.4837   2.4837   2.5927   2.5927   2.5927   2.5927   2.6179   2.6180
     2.6655   2.6655   2.9674   2.9674   2.9675   2.9675   2.9951   2.9951
     9.0734   9.0734  10.4660  10.4660  10.4660  10.4660  10.7572  10.7572
    10.7572  10.7572  10.8679  10.8680  11.0323  11.0323  11.0944  11.0944
    11.6502  11.6502  11.8369  11.8369  11.8369  11.8369  12.2216  12.2216
    12.2216  12.2217  12.2825  12.2825  12.3156  12.3157  12.4062  12.4062

          k = 0.0000-0.5043 0.0000 ( 10800 PWs)   bands (ev):

   -23.2689 -23.2688 -23.2616 -23.2615 -23.2520 -23.2519 -23.2519 -23.2518
   -19.8891 -19.8890 -19.7168 -19.7167 -19.7167 -19.7165 -19.5151 -19.5150
   -18.4808 -18.4807 -18.4285 -18.4284 -18.4284 -18.4282 -18.3893 -18.3891
   -17.5921 -17.5920 -17.4343 -17.4342 -17.4342 -17.4341 -17.2553 -17.2552
   -16.9554 -16.9552 -16.8955 -16.8954 -16.8954 -16.8954 -16.8830 -16.8830
    -8.0174  -8.0173  -8.0173  -8.0172  -8.0118  -8.0117  -7.9949  -7.9948
    -7.9616  -7.9616  -7.9569  -7.9568  -7.9199  -7.9199  -7.9198  -7.9198
    -7.9099  -7.9099  -7.9067  -7.9067  -7.9066  -7.9066  -7.8758  -7.8757
    -6.4285  -6.4284  -6.1131  -6.1130  -6.1130  -6.1128  -5.7844  -5.7842
    -4.4964  -4.4962  -4.3466  -4.3465  -4.3465  -4.3463  -4.0963  -4.0962
    -3.5026  -3.5026  -2.6953  -2.6952  -2.6952  -2.6951  -2.4843  -2.4842
    -1.9150  -1.9150  -1.9150  -1.9148  -1.7976  -1.7975  -1.7809  -1.7808
    -1.0926  -1.0925  -0.9769  -0.9769  -0.9768  -0.9767  -0.6661  -0.6660
    -0.4439  -0.4438  -0.3947  -0.3947  -0.3946  -0.3946  -0.2569  -0.2568
     0.3546   0.3547   0.4588   0.4589   0.4589   0.4590   1.0060   1.0061
     1.0255   1.0255   1.0390   1.0391   1.3159   1.3160   1.3160   1.3160
     1.3981   1.3981   1.4767   1.4767   1.4880   1.4880   1.4881   1.4881
     2.2250   2.2250   2.2823   2.2823   2.2824   2.2824   2.4832   2.4834
     2.5049   2.5049   2.5051   2.5051   2.5258   2.5259   2.5971   2.5971
     2.8058   2.8059   2.9640   2.9641   2.9641   2.9641   3.0066   3.0067
     8.4604   8.4605  10.3114  10.3114  10.3115  10.3115  10.8980  10.8981
    11.1245  11.1245  11.1245  11.1246  11.5269  11.5270  11.5900  11.5900
    11.6344  11.6345  11.6345  11.6345  11.8159  11.8160  11.9264  11.9265
    12.1144  12.1144  12.1145  12.1145  12.5850  12.5851  12.6519  12.6520

          k = 0.0000-0.5043-0.7630 ( 10804 PWs)   bands (ev):

   -23.2606 -23.2606 -23.2605 -23.2605 -23.2590 -23.2589 -23.2589 -23.2588
   -19.8507 -19.8507 -19.8506 -19.8505 -19.5880 -19.5880 -19.5879 -19.5878
   -18.4599 -18.4599 -18.4599 -18.4597 -18.3977 -18.3976 -18.3976 -18.3974
   -17.5454 -17.5454 -17.5453 -17.5452 -17.3007 -17.3006 -17.3006 -17.3006
   -16.9271 -16.9269 -16.9269 -16.9269 -16.8842 -16.8841 -16.8841 -16.8840
    -8.0364  -8.0364  -8.0363  -8.0363  -8.0158  -8.0158  -8.0158  -8.0157
    -7.9523  -7.9523  -7.9522  -7.9522  -7.9221  -7.9221  -7.9220  -7.9220
    -7.9066  -7.9065  -7.9065  -7.9065  -7.8983  -7.8983  -7.8983  -7.8982
    -6.3167  -6.3167  -6.3166  -6.3166  -5.9033  -5.9033  -5.9032  -5.9031
    -4.4840  -4.4840  -4.4839  -4.4838  -4.1918  -4.1918  -4.1917  -4.1917
    -3.2502  -3.2501  -3.2501  -3.2501  -2.3511  -2.3510  -2.3510  -2.3510
    -1.9556  -1.9555  -1.9555  -1.9555  -1.7855  -1.7855  -1.7854  -1.7854
    -1.1245  -1.1245  -1.1244  -1.1243  -0.7616  -0.7615  -0.7615  -0.7615
    -0.5027  -0.5026  -0.5026  -0.5025  -0.3127  -0.3126  -0.3126  -0.3125
     0.5636   0.5636   0.5637   0.5638   0.6517   0.6517   0.6517   0.6518
     1.1048   1.1048   1.1049   1.1049   1.1992   1.1992   1.1992   1.1993
     1.4507   1.4508   1.4508   1.4508   1.5210   1.5210   1.5210   1.5211
     2.2176   2.2177   2.2177   2.2177   2.4455   2.4455   2.4456   2.4457
     2.5210   2.5211   2.5211   2.5211   2.5847   2.5847   2.5847   2.5848
     2.7529   2.7529   2.7530   2.7530   3.0417   3.0417   3.0417   3.0418
     9.5493   9.5493   9.5494   9.5494  10.8116  10.8116  10.8117  10.8117
    10.8345  10.8345  10.8345  10.8346  11.0569  11.0569  11.0569  11.0570
    11.7291  11.7291  11.7291  11.7291  11.9672  11.9672  11.9672  11.9672
    12.0202  12.0202  12.0202  12.0202  12.5465  12.5465  12.5465  12.5466

     the Fermi energy is     5.2277 ev
     (compare with:     3.8006 eV, computed in scf)

     Writing output data file ./outdir/KDP.save/

     init_run     :      4.05s CPU      4.11s WALL (       1 calls)
     electrons    :    595.59s CPU    596.37s WALL (       1 calls)

     Called by init_run:
     wfcinit      :      0.00s CPU      0.00s WALL (       1 calls)
     potinit      :      0.26s CPU      0.28s WALL (       1 calls)
     hinit0       :      3.72s CPU      3.73s WALL (       1 calls)

     Called by electrons:
     c_bands      :    595.59s CPU    596.37s WALL (       1 calls)
     v_of_rho     :      0.23s CPU      0.24s WALL (       1 calls)

     Called by c_bands:
     init_us_2    :      0.12s CPU      0.13s WALL (       4 calls)
     cegterg      :    575.12s CPU    575.77s WALL (      17 calls)

     Called by *egterg:
     cdiaghg      :     29.11s CPU     29.12s WALL (     307 calls)
     h_psi        :    311.88s CPU    312.40s WALL (     324 calls)
     g_psi        :      1.03s CPU      1.03s WALL (     303 calls)

     Called by h_psi:
     h_psi:calbec :    126.42s CPU    126.48s WALL (     324 calls)
     vloc_psi     :     67.25s CPU     67.47s WALL (     324 calls)
     add_vuspsi   :    117.75s CPU    117.85s WALL (     324 calls)

     General routines
     calbec       :    126.42s CPU    126.48s WALL (     324 calls)
     fft          :      0.09s CPU      0.09s WALL (      12 calls)
     ffts         :      0.00s CPU      0.00s WALL (       1 calls)
     fftw         :     58.99s CPU     59.19s WALL (   40096 calls)
     interpolate  :      0.01s CPU      0.01s WALL (       1 calls)
     davcio       :      0.00s CPU      0.07s WALL (       8 calls)

     Parallel routines

     PWSCF        :   9m59.84s CPU  10m 0.78s WALL


   This run was terminated on:  12:38:28  27Aug2023            

=------------------------------------------------------------------------------=
   JOB DONE.
=------------------------------------------------------------------------------=
