
     Program PWSCF v.6.1 starts on  5Nov2023 at 18: 6:17 

     This program is part of the open-source Quantum ESPRESSO suite
     for quantum simulation of materials; please cite
         "P. Giannozzi et al., J. Phys.:Condens. Matter 21 395502 (2009);
          URL http://www.quantum-espresso.org", 
     in publications or presentations arising from this work. More details at
     http://www.quantum-espresso.org/quote

     Parallel version (MPI & OpenMP), running on       8 processor cores
     Number of MPI processes:                 8
     Threads/MPI process:                     1
     R & G space division:  proc/nbgrp/npool/nimage =       8
     Reading input from espresso.in

     Current dimensions of program PWSCF are:
     Max number of different atomic species (ntypx) = 10
     Max number of k-points (npk) =  40000
     Max angular momentum in pseudopotentials (lmaxx) =  3
               file C.pbe-rrkjus.UPF: wavefunction(s)  2S 2P renormalized
               file O.pbe-rrkjus.UPF: wavefunction(s)  2S renormalized
               file N.pbe-rrkjus.UPF: wavefunction(s)  2S renormalized
               file H.pbe-rrkjus.UPF: wavefunction(s)  1S renormalized

     Subspace diagonalization in iterative solution of the eigenvalue problem:
     a serial algorithm will be used


 %%%%%%%%%%%%%%%%%%%%%%%%%%%%%%%%%%%%%%%%%%%%%%%%%%%%%%%%%%%%%%%%%%%%%%%%%%%%%%
     Error in routine check_atoms (1):
     atoms #   1 and #   4 differ by lattice vector (-1, 0, 0) in crystal axis
 %%%%%%%%%%%%%%%%%%%%%%%%%%%%%%%%%%%%%%%%%%%%%%%%%%%%%%%%%%%%%%%%%%%%%%%%%%%%%%

     stopping ...

job aborted:
[ranks] message

[0-1] terminated

[2] application aborted
aborting MPI_COMM_WORLD (comm=0x44000000), error 1, comm rank 2

[3] application aborted
aborting MPI_COMM_WORLD (comm=0x44000000), error 1, comm rank 3

[4] application aborted
aborting MPI_COMM_WORLD (comm=0x44000000), error 1, comm rank 4

[5] terminated

[6] application aborted
aborting MPI_COMM_WORLD (comm=0x44000000), error 1, comm rank 6

[7] application aborted
aborting MPI_COMM_WORLD (comm=0x44000000), error 1, comm rank 7

---- error analysis -----

[2-4,6-7] on LAPTOP-2FES5HJM
F:\Computational physics\buraiQE\BURAI1.3_Windows\exec.WIN\qe\pw.exe aborted the job. abort code 1

---- error analysis -----
