
     Program PWSCF v.6.7MaX starts on 28Oct2023 at  8:51:33 

     This program is part of the open-source Quantum ESPRESSO suite
     for quantum simulation of materials; please cite
         "P. Giannozzi et al., J. Phys.:Condens. Matter 21 395502 (2009);
         "P. Giannozzi et al., J. Phys.:Condens. Matter 29 465901 (2017);
          URL http://www.quantum-espresso.org", 
     in publications or presentations arising from this work. More details at
     http://www.quantum-espresso.org/quote

     Parallel version (MPI), running on     1 processors

     MPI processes distributed on     1 nodes
     Waiting for input...
     Reading input from standard input

     Current dimensions of program PWSCF are:
     Max number of different atomic species (ntypx) = 10
     Max number of k-points (npk) =  40000
     Max angular momentum in pseudopotentials (lmaxx) =  3

     Atomic positions and unit cell read from directory:
     ./outdir/Urea.save/
     Atomic positions from file used, from input discarded

     Message from routine read_pp_mesh:
     mesh size missing, using the one in header
     Message from routine read_pp_mesh:
     mesh size missing, using the one in header
     file C.pbe-n-kjpaw_psl.1.0.0.UPF: wavefunction(s)  2S 2P renormalized
     file O.pbe-n-kjpaw_psl.0.1.UPF: wavefunction(s)  2P renormalized

     Subspace diagonalization in iterative solution of the eigenvalue problem:
     a serial algorithm will be used

     Found symmetry operation: I + (  0.0000 -0.5000  0.0000)
     This is a supercell, fractional translations are disabled

     G-vector sticks info
     --------------------
     sticks:   dense  smooth     PW     G-vecs:    dense   smooth      PW
     Sum        7917    3521   1041               223039    66101   10543



     bravais-lattice index     =            6
     lattice parameter (alat)  =      21.0327  a.u.
     unit-cell volume          =    3915.6496 (a.u.)^3
     number of atoms/cell      =           64
     number of atomic types    =            4
     number of electrons       =       192.00
     number of Kohn-Sham states=          192
     kinetic-energy cutoff     =      25.0000  Ry
     charge density cutoff     =     225.0000  Ry
     Exchange-correlation= SLA  PW   PBX  PBC
                           (   1   4   3   4   0   0   0)

     celldm(1)=  21.032652  celldm(2)=   0.000000  celldm(3)=   0.420845
     celldm(4)=   0.000000  celldm(5)=   0.000000  celldm(6)=   0.000000

     crystal axes: (cart. coord. in units of alat)
               a(1) = (   1.000000   0.000000   0.000000 )  
               a(2) = (   0.000000   1.000000   0.000000 )  
               a(3) = (   0.000000   0.000000   0.420845 )  

     reciprocal axes: (cart. coord. in units 2 pi/alat)
               b(1) = (  1.000000  0.000000  0.000000 )  
               b(2) = (  0.000000  1.000000  0.000000 )  
               b(3) = (  0.000000  0.000000  2.376174 )  


     PseudoPot. # 1 for C  read from file:
     /home/johnpaul/JP_QME/SSSP_Precision_Peseudos/C.pbe-n-kjpaw_psl.1.0.0.UPF
     MD5 check sum: 5d2aebdfa2cae82b50a7e79e9516da0f
     Pseudo is Projector augmented-wave + core cor, Zval =  4.0
     Generated using "atomic" code by A. Dal Corso  v.5.1
     Shape of augmentation charge: PSQ
     Using radial grid of 1073 points,  4 beta functions with: 
                l(1) =   0
                l(2) =   0
                l(3) =   1
                l(4) =   1
     Q(r) pseudized with 0 coefficients 


     PseudoPot. # 2 for H  read from file:
     /home/johnpaul/JP_QME/SSSP_Precision_Peseudos/H_ONCV_PBE-1.0.oncvpsp.upf
     MD5 check sum: 1790becc920ee074925cf490c71280fe
     Pseudo is Norm-conserving, Zval =  1.0
     Generated using ONCVPSP code by D. R. Hamann
     Using radial grid of 1166 points,  2 beta functions with: 
                l(1) =   0
                l(2) =   0

     PseudoPot. # 3 for N  read from file:
     /home/johnpaul/JP_QME/SSSP_Precision_Peseudos/N.oncvpsp.upf
     MD5 check sum: 563d65bfb082928f0c9eb97172f6c357
     Pseudo is Norm-conserving + core correction, Zval =  5.0
     Generated using ONCVPSP code by D. R. Hamann
     Using radial grid of 1058 points,  4 beta functions with: 
                l(1) =   0
                l(2) =   0
                l(3) =   1
                l(4) =   1

     PseudoPot. # 4 for O  read from file:
     /home/johnpaul/JP_QME/SSSP_Precision_Peseudos/O.pbe-n-kjpaw_psl.0.1.UPF
     MD5 check sum: 0234752ac141de4415c5fc33072bef88
     Pseudo is Projector augmented-wave + core cor, Zval =  6.0
     Generated using "atomic" code by A. Dal Corso  v.5.0.99 svn rev. 10869
     Shape of augmentation charge: BESSEL
     Using radial grid of 1095 points,  4 beta functions with: 
                l(1) =   0
                l(2) =   0
                l(3) =   1
                l(4) =   1
     Q(r) pseudized with 0 coefficients 


     atomic species   valence    mass     pseudopotential
        C              4.00    12.01070     C ( 1.00)
        H              1.00     1.00794     H ( 1.00)
        N              5.00    14.00674     N ( 1.00)
        O              6.00    15.99940     O ( 1.00)

      4 Sym. Ops. (no inversion) found



   Cartesian axes

     site n.     atom                  positions (alat units)
         1           C   tau(   1) = (   0.0000000   0.2500000   0.1371953  )
         2           C   tau(   2) = (   0.0000000   0.7500000   0.1371953  )
         3           C   tau(   3) = (   0.2500000   0.0000000   0.2836492  )
         4           C   tau(   4) = (   0.7500000   0.0000000   0.2836492  )
         5           C   tau(   5) = (   0.2500000   0.5000000   0.2836492  )
         6           C   tau(   6) = (   0.5000000   0.2500000   0.1371953  )
         7           C   tau(   7) = (   0.5000000   0.7500000   0.1371953  )
         8           C   tau(   8) = (   0.7500000   0.5000000   0.2836492  )
         9           H   tau(   9) = (   0.1287500   0.3787500   0.1189728  )
        10           H   tau(  10) = (   0.8712500   0.6212500   0.1189728  )
        11           H   tau(  11) = (   0.3787500   0.8712500   0.3018718  )
        12           H   tau(  12) = (   0.6212500   0.1287500   0.3018718  )
        13           H   tau(  13) = (   0.1212500   0.6287500   0.3018718  )
        14           H   tau(  14) = (   0.8712500   0.1212500   0.1189728  )
        15           H   tau(  15) = (   0.6287500   0.3787500   0.1189728  )
        16           H   tau(  16) = (   0.1287500   0.8787500   0.1189728  )
        17           H   tau(  17) = (   0.8787500   0.8712500   0.3018718  )
        18           H   tau(  18) = (   0.1212500   0.1287500   0.3018718  )
        19           H   tau(  19) = (   0.3787500   0.3712500   0.3018718  )
        20           H   tau(  20) = (   0.3712500   0.1212500   0.1189728  )
        21           H   tau(  21) = (   0.3712500   0.6212500   0.1189728  )
        22           H   tau(  22) = (   0.6212500   0.6287500   0.3018718  )
        23           H   tau(  23) = (   0.6287500   0.8787500   0.1189728  )
        24           H   tau(  24) = (   0.8787500   0.3712500   0.3018718  )
        25           H   tau(  25) = (   0.0720500   0.3220500   0.4048525  )
        26           H   tau(  26) = (   0.9279500   0.6779500   0.4048525  )
        27           H   tau(  27) = (   0.3220500   0.9279500   0.0159921  )
        28           H   tau(  28) = (   0.6779500   0.0720500   0.0159921  )
        29           H   tau(  29) = (   0.1779500   0.5720500   0.0159921  )
        30           H   tau(  30) = (   0.9279500   0.1779500   0.4048525  )
        31           H   tau(  31) = (   0.5720500   0.3220500   0.4048525  )
        32           H   tau(  32) = (   0.0720500   0.8220500   0.4048525  )
        33           H   tau(  33) = (   0.8220500   0.9279500   0.0159921  )
        34           H   tau(  34) = (   0.1779500   0.0720500   0.0159921  )
        35           H   tau(  35) = (   0.3220500   0.4279500   0.0159921  )
        36           H   tau(  36) = (   0.4279500   0.1779500   0.4048525  )
        37           H   tau(  37) = (   0.4279500   0.6779500   0.4048525  )
        38           H   tau(  38) = (   0.6779500   0.5720500   0.0159921  )
        39           H   tau(  39) = (   0.5720500   0.8220500   0.4048525  )
        40           H   tau(  40) = (   0.8220500   0.4279500   0.0159921  )
        41           N   tau(  41) = (   0.0729500   0.3229500   0.0743211  )
        42           N   tau(  42) = (   0.9270500   0.6770500   0.0743211  )
        43           N   tau(  43) = (   0.3229500   0.9270500   0.3465235  )
        44           N   tau(  44) = (   0.6770500   0.0729500   0.3465235  )
        45           N   tau(  45) = (   0.1770500   0.5729500   0.3465235  )
        46           N   tau(  46) = (   0.9270500   0.1770500   0.0743211  )
        47           N   tau(  47) = (   0.5729500   0.3229500   0.0743211  )
        48           N   tau(  48) = (   0.0729500   0.8229500   0.0743211  )
        49           N   tau(  49) = (   0.8229500   0.9270500   0.3465235  )
        50           N   tau(  50) = (   0.1770500   0.0729500   0.3465235  )
        51           N   tau(  51) = (   0.3229500   0.4270500   0.3465235  )
        52           N   tau(  52) = (   0.4270500   0.1770500   0.0743211  )
        53           N   tau(  53) = (   0.4270500   0.6770500   0.0743211  )
        54           N   tau(  54) = (   0.6770500   0.5729500   0.3465235  )
        55           N   tau(  55) = (   0.5729500   0.8229500   0.0743211  )
        56           N   tau(  56) = (   0.8229500   0.4270500   0.3465235  )
        57           O   tau(  57) = (   0.0000000   0.2500000   0.2505288  )
        58           O   tau(  58) = (   0.0000000   0.7500000   0.2505288  )
        59           O   tau(  59) = (   0.2500000   0.0000000   0.1703158  )
        60           O   tau(  60) = (   0.7500000   0.0000000   0.1703158  )
        61           O   tau(  61) = (   0.2500000   0.5000000   0.1703158  )
        62           O   tau(  62) = (   0.5000000   0.2500000   0.2505288  )
        63           O   tau(  63) = (   0.5000000   0.7500000   0.2505288  )
        64           O   tau(  64) = (   0.7500000   0.5000000   0.1703158  )

     number of k points=   221

     Number of k-points >= 100: set verbosity='high' to print them.

     Dense  grid:   223039 G-vectors     FFT dimensions: ( 108, 108,  45)

     Smooth grid:    66101 G-vectors     FFT dimensions: (  72,  72,  30)

     Estimated max dynamical RAM per process >     325.66 MB

     Check: negative core charge=   -0.000020

     The potential is recalculated from file :
     ./outdir/Urea.save/charge-density

     Starting wfcs are  160 randomized atomic wfcs +   32 random wfcs
     Checking if some PAW data can be deallocated... 

     Band Structure Calculation
