
     Program PWSCF v.6.7MaX starts on 25Oct2023 at 23: 8: 8 

     This program is part of the open-source Quantum ESPRESSO suite
     for quantum simulation of materials; please cite
         "P. Giannozzi et al., J. Phys.:Condens. Matter 21 395502 (2009);
         "P. Giannozzi et al., J. Phys.:Condens. Matter 29 465901 (2017);
          URL http://www.quantum-espresso.org", 
     in publications or presentations arising from this work. More details at
     http://www.quantum-espresso.org/quote

     Parallel version (MPI), running on     1 processors

     MPI processes distributed on     1 nodes
     Waiting for input...
     Reading input from standard input

     Current dimensions of program PWSCF are:
     Max number of different atomic species (ntypx) = 10
     Max number of k-points (npk) =  40000
     Max angular momentum in pseudopotentials (lmaxx) =  3

     Atomic positions and unit cell read from directory:
     ./outdir/Urea.save/
     Atomic positions from file used, from input discarded

     Message from routine read_pp_mesh:
     mesh size missing, using the one in header
     Message from routine read_pp_mesh:
     mesh size missing, using the one in header
     file C.pbe-n-kjpaw_psl.1.0.0.UPF: wavefunction(s)  2S 2P renormalized
     file O.pbe-n-kjpaw_psl.0.1.UPF: wavefunction(s)  2P renormalized

     Subspace diagonalization in iterative solution of the eigenvalue problem:
     a serial algorithm will be used

     Found symmetry operation: I + (  0.0000 -0.5000  0.0000)
     This is a supercell, fractional translations are disabled

     G-vector sticks info
     --------------------
     sticks:   dense  smooth     PW     G-vecs:    dense   smooth      PW
     Sum        7917    3521    973               223039    66101    9475



     bravais-lattice index     =            6
     lattice parameter (alat)  =      21.0327  a.u.
     unit-cell volume          =    3915.6496 (a.u.)^3
     number of atoms/cell      =           64
     number of atomic types    =            4
     number of electrons       =       192.00
     number of Kohn-Sham states=          192
     kinetic-energy cutoff     =      25.0000  Ry
     charge density cutoff     =     225.0000  Ry
     Exchange-correlation= SLA  PW   PBX  PBC
                           (   1   4   3   4   0   0   0)

     celldm(1)=  21.032652  celldm(2)=   0.000000  celldm(3)=   0.420845
     celldm(4)=   0.000000  celldm(5)=   0.000000  celldm(6)=   0.000000

     crystal axes: (cart. coord. in units of alat)
               a(1) = (   1.000000   0.000000   0.000000 )  
               a(2) = (   0.000000   1.000000   0.000000 )  
               a(3) = (   0.000000   0.000000   0.420845 )  

     reciprocal axes: (cart. coord. in units 2 pi/alat)
               b(1) = (  1.000000  0.000000  0.000000 )  
               b(2) = (  0.000000  1.000000  0.000000 )  
               b(3) = (  0.000000  0.000000  2.376174 )  


     PseudoPot. # 1 for C  read from file:
     /home/johnpaul/JP_QME/SSSP_Precision_Peseudos/C.pbe-n-kjpaw_psl.1.0.0.UPF
     MD5 check sum: 5d2aebdfa2cae82b50a7e79e9516da0f
     Pseudo is Projector augmented-wave + core cor, Zval =  4.0
     Generated using "atomic" code by A. Dal Corso  v.5.1
     Shape of augmentation charge: PSQ
     Using radial grid of 1073 points,  4 beta functions with: 
                l(1) =   0
                l(2) =   0
                l(3) =   1
                l(4) =   1
     Q(r) pseudized with 0 coefficients 


     PseudoPot. # 2 for H  read from file:
     /home/johnpaul/JP_QME/SSSP_Precision_Peseudos/H_ONCV_PBE-1.0.oncvpsp.upf
     MD5 check sum: 1790becc920ee074925cf490c71280fe
     Pseudo is Norm-conserving, Zval =  1.0
     Generated using ONCVPSP code by D. R. Hamann
     Using radial grid of 1166 points,  2 beta functions with: 
                l(1) =   0
                l(2) =   0

     PseudoPot. # 3 for N  read from file:
     /home/johnpaul/JP_QME/SSSP_Precision_Peseudos/N.oncvpsp.upf
     MD5 check sum: 563d65bfb082928f0c9eb97172f6c357
     Pseudo is Norm-conserving + core correction, Zval =  5.0
     Generated using ONCVPSP code by D. R. Hamann
     Using radial grid of 1058 points,  4 beta functions with: 
                l(1) =   0
                l(2) =   0
                l(3) =   1
                l(4) =   1

     PseudoPot. # 4 for O  read from file:
     /home/johnpaul/JP_QME/SSSP_Precision_Peseudos/O.pbe-n-kjpaw_psl.0.1.UPF
     MD5 check sum: 0234752ac141de4415c5fc33072bef88
     Pseudo is Projector augmented-wave + core cor, Zval =  6.0
     Generated using "atomic" code by A. Dal Corso  v.5.0.99 svn rev. 10869
     Shape of augmentation charge: BESSEL
     Using radial grid of 1095 points,  4 beta functions with: 
                l(1) =   0
                l(2) =   0
                l(3) =   1
                l(4) =   1
     Q(r) pseudized with 0 coefficients 


     atomic species   valence    mass     pseudopotential
        C              4.00    12.01070     C ( 1.00)
        H              1.00     1.00794     H ( 1.00)
        N              5.00    14.00674     N ( 1.00)
        O              6.00    15.99940     O ( 1.00)

      4 Sym. Ops. (no inversion) found



   Cartesian axes

     site n.     atom                  positions (alat units)
         1           C   tau(   1) = (   0.0000000   0.2500000   0.1371953  )
         2           C   tau(   2) = (   0.0000000   0.7500000   0.1371953  )
         3           C   tau(   3) = (   0.2500000   0.0000000   0.2836492  )
         4           C   tau(   4) = (   0.7500000   0.0000000   0.2836492  )
         5           C   tau(   5) = (   0.2500000   0.5000000   0.2836492  )
         6           C   tau(   6) = (   0.5000000   0.2500000   0.1371953  )
         7           C   tau(   7) = (   0.5000000   0.7500000   0.1371953  )
         8           C   tau(   8) = (   0.7500000   0.5000000   0.2836492  )
         9           H   tau(   9) = (   0.1287500   0.3787500   0.1189728  )
        10           H   tau(  10) = (   0.8712500   0.6212500   0.1189728  )
        11           H   tau(  11) = (   0.3787500   0.8712500   0.3018718  )
        12           H   tau(  12) = (   0.6212500   0.1287500   0.3018718  )
        13           H   tau(  13) = (   0.1212500   0.6287500   0.3018718  )
        14           H   tau(  14) = (   0.8712500   0.1212500   0.1189728  )
        15           H   tau(  15) = (   0.6287500   0.3787500   0.1189728  )
        16           H   tau(  16) = (   0.1287500   0.8787500   0.1189728  )
        17           H   tau(  17) = (   0.8787500   0.8712500   0.3018718  )
        18           H   tau(  18) = (   0.1212500   0.1287500   0.3018718  )
        19           H   tau(  19) = (   0.3787500   0.3712500   0.3018718  )
        20           H   tau(  20) = (   0.3712500   0.1212500   0.1189728  )
        21           H   tau(  21) = (   0.3712500   0.6212500   0.1189728  )
        22           H   tau(  22) = (   0.6212500   0.6287500   0.3018718  )
        23           H   tau(  23) = (   0.6287500   0.8787500   0.1189728  )
        24           H   tau(  24) = (   0.8787500   0.3712500   0.3018718  )
        25           H   tau(  25) = (   0.0720500   0.3220500   0.4048525  )
        26           H   tau(  26) = (   0.9279500   0.6779500   0.4048525  )
        27           H   tau(  27) = (   0.3220500   0.9279500   0.0159921  )
        28           H   tau(  28) = (   0.6779500   0.0720500   0.0159921  )
        29           H   tau(  29) = (   0.1779500   0.5720500   0.0159921  )
        30           H   tau(  30) = (   0.9279500   0.1779500   0.4048525  )
        31           H   tau(  31) = (   0.5720500   0.3220500   0.4048525  )
        32           H   tau(  32) = (   0.0720500   0.8220500   0.4048525  )
        33           H   tau(  33) = (   0.8220500   0.9279500   0.0159921  )
        34           H   tau(  34) = (   0.1779500   0.0720500   0.0159921  )
        35           H   tau(  35) = (   0.3220500   0.4279500   0.0159921  )
        36           H   tau(  36) = (   0.4279500   0.1779500   0.4048525  )
        37           H   tau(  37) = (   0.4279500   0.6779500   0.4048525  )
        38           H   tau(  38) = (   0.6779500   0.5720500   0.0159921  )
        39           H   tau(  39) = (   0.5720500   0.8220500   0.4048525  )
        40           H   tau(  40) = (   0.8220500   0.4279500   0.0159921  )
        41           N   tau(  41) = (   0.0729500   0.3229500   0.0743211  )
        42           N   tau(  42) = (   0.9270500   0.6770500   0.0743211  )
        43           N   tau(  43) = (   0.3229500   0.9270500   0.3465235  )
        44           N   tau(  44) = (   0.6770500   0.0729500   0.3465235  )
        45           N   tau(  45) = (   0.1770500   0.5729500   0.3465235  )
        46           N   tau(  46) = (   0.9270500   0.1770500   0.0743211  )
        47           N   tau(  47) = (   0.5729500   0.3229500   0.0743211  )
        48           N   tau(  48) = (   0.0729500   0.8229500   0.0743211  )
        49           N   tau(  49) = (   0.8229500   0.9270500   0.3465235  )
        50           N   tau(  50) = (   0.1770500   0.0729500   0.3465235  )
        51           N   tau(  51) = (   0.3229500   0.4270500   0.3465235  )
        52           N   tau(  52) = (   0.4270500   0.1770500   0.0743211  )
        53           N   tau(  53) = (   0.4270500   0.6770500   0.0743211  )
        54           N   tau(  54) = (   0.6770500   0.5729500   0.3465235  )
        55           N   tau(  55) = (   0.5729500   0.8229500   0.0743211  )
        56           N   tau(  56) = (   0.8229500   0.4270500   0.3465235  )
        57           O   tau(  57) = (   0.0000000   0.2500000   0.2505288  )
        58           O   tau(  58) = (   0.0000000   0.7500000   0.2505288  )
        59           O   tau(  59) = (   0.2500000   0.0000000   0.1703158  )
        60           O   tau(  60) = (   0.7500000   0.0000000   0.1703158  )
        61           O   tau(  61) = (   0.2500000   0.5000000   0.1703158  )
        62           O   tau(  62) = (   0.5000000   0.2500000   0.2505288  )
        63           O   tau(  63) = (   0.5000000   0.7500000   0.2505288  )
        64           O   tau(  64) = (   0.7500000   0.5000000   0.1703158  )

     number of k points=     2 (tetrahedron method)
                       cart. coord. in units 2pi/alat
        k(    1) = (   0.0000000   0.0000000   0.0000000), wk =   0.6666667
        k(    2) = (   0.0000000   0.0000000   0.7920581), wk =   1.3333333

     Dense  grid:   223039 G-vectors     FFT dimensions: ( 108, 108,  45)

     Smooth grid:    66101 G-vectors     FFT dimensions: (  72,  72,  30)

     Estimated max dynamical RAM per process >     325.66 MB

     Check: negative core charge=   -0.000020

     The potential is recalculated from file :
     ./outdir/Urea.save/charge-density

     Starting wfcs are  160 randomized atomic wfcs +   32 random wfcs
     Checking if some PAW data can be deallocated... 

     Band Structure Calculation
     Davidson diagonalization with overlap

     ethr =  5.21E-10,  avg # of iterations = 37.0

     total cpu time spent up to now is      322.1 secs

     End of band structure calculation

          k = 0.0000 0.0000 0.0000 (  8235 PWs)   bands (ev):

   -20.6472 -20.5601 -20.5601 -20.5586 -20.5586 -20.5585 -20.5585 -20.4592
   -17.2945 -17.2791 -17.2791 -17.2767 -17.2767 -17.2767 -17.2767 -17.2482
   -16.3256 -16.3256 -16.3012 -16.3012 -16.3012 -16.3012 -16.2880 -16.2880
    -9.6556  -9.4599  -9.4599  -9.4116  -9.4116  -9.4116  -9.4116  -9.0534
    -8.1260  -7.8510  -7.8510  -7.8510  -7.8510  -7.6027  -7.6027  -7.3395
    -7.3395  -7.2740  -7.2740  -7.2561  -7.2561  -7.2561  -7.2561  -7.2353
    -5.7672  -5.7672  -5.7384  -5.7384  -5.3316  -5.3316  -5.3316  -5.3316
    -4.4968  -4.4968  -4.4968  -4.4968  -4.3297  -4.3297  -4.1893  -4.1893
    -3.8539  -3.6200  -3.6200  -3.5796  -3.5796  -3.5796  -3.5796  -3.4005
    -0.8009  -0.8009  -0.8009  -0.8009  -0.7291  -0.7291  -0.7117  -0.7117
    -0.6608  -0.3570  -0.3570  -0.3570  -0.3570  -0.2598  -0.2598  -0.1822
    -0.1822   0.1422   0.1422   0.1422   0.1422   0.2078   0.2078   0.5240
     5.3182   5.9594   5.9594   6.1201   6.1201   6.1202   6.1202   6.4550
     6.4550   7.0793   7.0793   7.0793   7.0793   7.3506   7.3506   8.3472
     8.6301   8.6301   9.3226   9.3226   9.3226   9.3226   9.6842   9.8930
     9.9726   9.9726  10.6574  10.6574  10.6574  10.6574  10.7876  10.7876
    10.8198  10.8198  10.8198  10.8198  10.9629  11.0473  11.4628  11.4628
    11.5603  11.5603  11.6632  11.8216  11.8216  11.8216  11.8216  11.8558
    11.8559  11.8559  11.8559  11.8707  11.8707  11.9344  12.7170  12.7170
    12.8491  13.1742  13.1742  13.2529  13.2967  13.2967  13.6527  13.6527
    13.6527  13.6527  13.8871  14.2672  14.2672  14.4375  14.4375  14.4375
    14.4375  14.4791  14.4791  14.5503  14.9662  14.9662  14.9662  14.9662
    15.2171  15.2171  15.2171  15.2171  15.6950  15.6950  15.7362  15.7362
    15.7362  15.7362  16.1035  16.1035  16.3671  16.3671  16.8301  16.8301

          k = 0.0000 0.0000 0.7921 (  8278 PWs)   bands (ev):

   -20.5637 -20.4857 -20.4857 -20.4857 -20.4857 -20.4828 -20.4828 -20.4083
   -17.6488 -17.4950 -17.4950 -17.4950 -17.4950 -17.4732 -17.4732 -17.3216
   -16.2971 -16.2971 -16.2813 -16.2813 -16.2777 -16.2777 -16.2777 -16.2777
    -9.3715  -9.2052  -9.2052  -9.2052  -9.2052  -9.1606  -9.1606  -8.9840
    -7.5682  -7.5682  -7.5682  -7.5682  -7.5373  -7.5373  -7.5344  -7.5344
    -7.3353  -7.1969  -7.1969  -7.1969  -7.1969  -7.0993  -7.0993  -6.8609
    -5.7042  -5.7042  -5.6937  -5.6937  -5.5361  -5.5361  -5.5361  -5.5361
    -4.7291  -4.5962  -4.5962  -4.5962  -4.5962  -4.5600  -4.5600  -4.3993
    -4.2333  -4.2333  -4.2273  -4.2273  -4.2055  -4.2055  -4.2055  -4.2055
    -0.6048  -0.6048  -0.6048  -0.6048  -0.5283  -0.5283  -0.5205  -0.5050
    -0.5050  -0.2753  -0.2753  -0.2753  -0.2753  -0.1384  -0.1384  -0.1058
    -0.1058   0.1741   0.1741   0.1741   0.1741   0.2890   0.2890   0.3732
     6.2426   6.4149   6.4149   6.5232   6.5232   6.5232   6.5232   6.7540
     6.7540   7.5883   7.5883   7.5883   7.5884   8.0840   8.2272   8.2272
     8.7559   8.7560   9.0293   9.1896   9.1896   9.1896   9.1896   9.4730
     9.6394   9.6394   9.6993   9.6993   9.8700   9.8700   9.9558   9.9559
     9.9559   9.9559   9.9612  10.5486  10.5486  10.5486  10.5486  11.2535
    11.2535  11.2535  11.2535  11.2617  11.3014  11.5550  11.5550  11.5550
    11.5550  11.9486  11.9486  12.0199  12.0199  12.2359  12.2359  12.3458
    13.1181  13.1181  13.2422  13.2422  13.2422  13.2422  13.4984  13.5002
    13.5002  13.5798  13.5798  14.0171  14.1567  14.1567  14.1567  14.1567
    14.3953  14.3953  14.9029  14.9029  15.0607  15.0607  15.0607  15.0607
    15.1322  15.8420  15.8420  15.8420  15.8420  15.8979  15.8979  16.4965
    16.4965  16.6240  16.9365  16.9365  16.9365  16.9365  17.0904  17.0904

     the Fermi energy is     4.3793 ev
     (compare with:     0.5239 eV, computed in scf)

     Writing output data file ./outdir/Urea.save/

     init_run     :      2.58s CPU      2.66s WALL (       1 calls)
     electrons    :    319.12s CPU    319.28s WALL (       1 calls)

     Called by init_run:
     wfcinit      :      0.00s CPU      0.00s WALL (       1 calls)
     potinit      :      0.75s CPU      0.76s WALL (       1 calls)
     hinit0       :      1.32s CPU      1.32s WALL (       1 calls)

     Called by electrons:
     c_bands      :    319.12s CPU    319.28s WALL (       1 calls)
     v_of_rho     :      0.24s CPU      0.25s WALL (       1 calls)
     newd         :      0.46s CPU      0.51s WALL (       1 calls)
     PAW_pot      :      0.47s CPU      0.47s WALL (       1 calls)

     Called by c_bands:
     init_us_2    :      0.02s CPU      0.02s WALL (       2 calls)
     cegterg      :    308.98s CPU    309.10s WALL (       5 calls)

     Called by *egterg:
     cdiaghg      :     10.53s CPU     10.53s WALL (      76 calls)
     h_psi        :     81.77s CPU     81.84s WALL (      81 calls)
     s_psi        :     33.29s CPU     33.30s WALL (      81 calls)
     g_psi        :      0.26s CPU      0.26s WALL (      74 calls)

     Called by h_psi:
     h_psi:calbec :     31.84s CPU     31.84s WALL (      81 calls)
     vloc_psi     :     16.39s CPU     16.42s WALL (      81 calls)
     add_vuspsi   :     33.39s CPU     33.42s WALL (      81 calls)

     General routines
     calbec       :     31.84s CPU     31.84s WALL (      81 calls)
     fft          :      0.12s CPU      0.12s WALL (      13 calls)
     ffts         :      0.01s CPU      0.01s WALL (       1 calls)
     fftw         :     14.20s CPU     14.22s WALL (   13068 calls)
     interpolate  :      0.02s CPU      0.02s WALL (       1 calls)
     davcio       :      0.01s CPU      0.02s WALL (       4 calls)

     Parallel routines

     PWSCF        :   5m21.86s CPU   5m22.15s WALL


   This run was terminated on:  23:13:31  25Oct2023            

=------------------------------------------------------------------------------=
   JOB DONE.
=------------------------------------------------------------------------------=
