 INFO
nunit      1    1    1
unit   cell
celltype   primcell
shape   parapipedal
 END_INFO
 DIM-GROUP
           3           1
 PRIMVEC
   32.1696000000    0.0000000000    0.0000000000
    0.0000000000   34.7232000000    0.0000000000
   -4.8409211990    0.0000000000    5.6840373400
 CONVVEC
   32.1696000000    0.0000000000    0.0000000000
    0.0000000000   34.7232000000    0.0000000000
   -4.8409211990    0.0000000000    5.6840373400
 PRIMCOORD
         108           1
  8     14.3906600000     7.5313240000     4.0264410000
  8     14.3906600000    19.1057240000     4.0264410000
  8     14.3906600000    30.6801250000     4.0264410000
  8     25.1138600000     7.5313240000     4.0264410000
  8     25.1138600000    19.1057240000     4.0264410000
  8     25.1138600000    30.6801250000     4.0264410000
  8      3.6674610000     7.5313240000     4.0264410000
  8      3.6674610000    19.1057240000     4.0264410000
  8      3.6674610000    30.6801250000     4.0264410000
  8     15.0046080000     5.4941130000     4.3606630000
  8     15.0046080000    17.0685140000     4.3606630000
  8     15.0046080000    28.6429150000     4.3606630000
  8     25.7278070000     5.4941130000     4.3606630000
  8     25.7278070000    17.0685140000     4.3606630000
  8     25.7278070000    28.6429150000     4.3606630000
  8      4.2814080000     5.4941130000     4.3606630000
  8      4.2814080000    17.0685140000     4.3606630000
  8      4.2814080000    28.6429150000     4.3606630000
  7     14.1569150000     6.3215670000     4.0150730000
  7     14.1569150000    17.8959680000     4.0150730000
  7     14.1569150000    29.4703690000     4.0150730000
  7     24.8801140000     6.3215670000     4.0150730000
  7     24.8801140000    17.8959680000     4.0150730000
  7     24.8801140000    29.4703690000     4.0150730000
  7      3.4337160000     6.3215670000     4.0150730000
  7      3.4337160000    17.8959680000     4.0150730000
  7      3.4337160000    29.4703690000     4.0150730000
  6     10.3831730000     4.9409030000     2.7867420000
  6     10.3831730000    16.5153040000     2.7867420000
  6     10.3831730000    28.0897050000     2.7867420000
  6     21.1063730000     4.9409030000     2.7867420000
  6     21.1063730000    16.5153040000     2.7867420000
  6     21.1063730000    28.0897050000     2.7867420000
  6     -0.3400260000     4.9409030000     2.7867420000
  6     -0.3400260000    16.5153040000     2.7867420000
  6     -0.3400260000    28.0897050000     2.7867420000
  6     10.6447410000     6.3286510000     2.8117510000
  6     10.6447410000    17.9030510000     2.8117510000
  6     10.6447410000    29.4774520000     2.8117510000
  6     21.3679400000     6.3286510000     2.8117510000
  6     21.3679400000    17.9030510000     2.8117510000
  6     21.3679400000    29.4774520000     2.8117510000
  6     -0.0784590000     6.3286510000     2.8117510000
  6     -0.0784590000    17.9030510000     2.8117510000
  6     -0.0784590000    29.4774520000     2.8117510000
  6     11.8951250000     6.7696350000     3.2136300000
  6     11.8951250000    18.3440360000     3.2136300000
  6     11.8951250000    29.9184370000     3.2136300000
  6     22.6183250000     6.7696350000     3.2136300000
  6     22.6183250000    18.3440360000     3.2136300000
  6     22.6183250000    29.9184370000     3.2136300000
  6      1.1719260000     6.7696350000     3.2136300000
  6      1.1719260000    18.3440360000     3.2136300000
  6      1.1719260000    29.9184370000     3.2136300000
  1     12.0876840000     7.7004600000     3.2287490000
  1     12.0876840000    19.2748610000     3.2287490000
  1     12.0876840000    30.8492620000     3.2287490000
  1     22.8108830000     7.7004600000     3.2287490000
  1     22.8108830000    19.2748610000     3.2287490000
  1     22.8108830000    30.8492620000     3.2287490000
  1      1.3644840000     7.7004600000     3.2287490000
  1      1.3644840000    19.2748610000     3.2287490000
  1      1.3644840000    30.8492620000     3.2287490000
  6     12.8719750000     5.8483250000     3.5961660000
  6     12.8719750000    17.4227250000     3.5961660000
  6     12.8719750000    28.9971260000     3.5961660000
  6     23.5951740000     5.8483250000     3.5961660000
  6     23.5951740000    17.4227250000     3.5961660000
  6     23.5951740000    28.9971260000     3.5961660000
  6      2.1487760000     5.8483250000     3.5961660000
  6      2.1487760000    17.4227250000     3.5961660000
  6      2.1487760000    28.9971260000     3.5961660000
  6     12.6353930000     4.4779040000     3.5631980000
  6     12.6353930000    16.0523050000     3.5631980000
  6     12.6353930000    27.6267050000     3.5631980000
  6     23.3585920000     4.4779040000     3.5631980000
  6     23.3585920000    16.0523050000     3.5631980000
  6     23.3585920000    27.6267050000     3.5631980000
  6      1.9121940000     4.4779040000     3.5631980000
  6      1.9121940000    16.0523050000     3.5631980000
  6      1.9121940000    27.6267050000     3.5631980000
  1     13.3156860000     3.8635470000     3.8102260000
  1     13.3156860000    15.4379470000     3.8102260000
  1     13.3156860000    27.0123480000     3.8102260000
  1     24.0388860000     3.8635470000     3.8102260000
  1     24.0388860000    15.4379470000     3.8102260000
  1     24.0388860000    27.0123480000     3.8102260000
  1      2.5924870000     3.8635470000     3.8102260000
  1      2.5924870000    15.4379470000     3.8102260000
  1      2.5924870000    27.0123480000     3.8102260000
  6     11.3944120000     4.0299750000     3.1641790000
  6     11.3944120000    15.6043750000     3.1641790000
  6     11.3944120000    27.1787760000     3.1641790000
  6     22.1176110000     4.0299750000     3.1641790000
  6     22.1176110000    15.6043750000     3.1641790000
  6     22.1176110000    27.1787760000     3.1641790000
  6      0.6712120000     4.0299750000     3.1641790000
  6      0.6712120000    15.6043750000     3.1641790000
  6      0.6712120000    27.1787760000     3.1641790000
  1     11.2176350000     3.0973100000     3.1423520000
  1     11.2176350000    14.6717100000     3.1423520000
  1     11.2176350000    26.2461110000     3.1423520000
  1     21.9408340000     3.0973100000     3.1423520000
  1     21.9408340000    14.6717100000     3.1423520000
  1     21.9408340000    26.2461110000     3.1423520000
  1      0.4944360000     3.0973100000     3.1423520000
  1      0.4944360000    14.6717100000     3.1423520000
  1      0.4944360000    26.2461110000     3.1423520000
 CONVCOORD
         108           1
  8     14.3906600000     7.5313240000     4.0264410000
  8     14.3906600000    19.1057240000     4.0264410000
  8     14.3906600000    30.6801250000     4.0264410000
  8     25.1138600000     7.5313240000     4.0264410000
  8     25.1138600000    19.1057240000     4.0264410000
  8     25.1138600000    30.6801250000     4.0264410000
  8      3.6674610000     7.5313240000     4.0264410000
  8      3.6674610000    19.1057240000     4.0264410000
  8      3.6674610000    30.6801250000     4.0264410000
  8     15.0046080000     5.4941130000     4.3606630000
  8     15.0046080000    17.0685140000     4.3606630000
  8     15.0046080000    28.6429150000     4.3606630000
  8     25.7278070000     5.4941130000     4.3606630000
  8     25.7278070000    17.0685140000     4.3606630000
  8     25.7278070000    28.6429150000     4.3606630000
  8      4.2814080000     5.4941130000     4.3606630000
  8      4.2814080000    17.0685140000     4.3606630000
  8      4.2814080000    28.6429150000     4.3606630000
  7     14.1569150000     6.3215670000     4.0150730000
  7     14.1569150000    17.8959680000     4.0150730000
  7     14.1569150000    29.4703690000     4.0150730000
  7     24.8801140000     6.3215670000     4.0150730000
  7     24.8801140000    17.8959680000     4.0150730000
  7     24.8801140000    29.4703690000     4.0150730000
  7      3.4337160000     6.3215670000     4.0150730000
  7      3.4337160000    17.8959680000     4.0150730000
  7      3.4337160000    29.4703690000     4.0150730000
  6     10.3831730000     4.9409030000     2.7867420000
  6     10.3831730000    16.5153040000     2.7867420000
  6     10.3831730000    28.0897050000     2.7867420000
  6     21.1063730000     4.9409030000     2.7867420000
  6     21.1063730000    16.5153040000     2.7867420000
  6     21.1063730000    28.0897050000     2.7867420000
  6     -0.3400260000     4.9409030000     2.7867420000
  6     -0.3400260000    16.5153040000     2.7867420000
  6     -0.3400260000    28.0897050000     2.7867420000
  6     10.6447410000     6.3286510000     2.8117510000
  6     10.6447410000    17.9030510000     2.8117510000
  6     10.6447410000    29.4774520000     2.8117510000
  6     21.3679400000     6.3286510000     2.8117510000
  6     21.3679400000    17.9030510000     2.8117510000
  6     21.3679400000    29.4774520000     2.8117510000
  6     -0.0784590000     6.3286510000     2.8117510000
  6     -0.0784590000    17.9030510000     2.8117510000
  6     -0.0784590000    29.4774520000     2.8117510000
  6     11.8951250000     6.7696350000     3.2136300000
  6     11.8951250000    18.3440360000     3.2136300000
  6     11.8951250000    29.9184370000     3.2136300000
  6     22.6183250000     6.7696350000     3.2136300000
  6     22.6183250000    18.3440360000     3.2136300000
  6     22.6183250000    29.9184370000     3.2136300000
  6      1.1719260000     6.7696350000     3.2136300000
  6      1.1719260000    18.3440360000     3.2136300000
  6      1.1719260000    29.9184370000     3.2136300000
  1     12.0876840000     7.7004600000     3.2287490000
  1     12.0876840000    19.2748610000     3.2287490000
  1     12.0876840000    30.8492620000     3.2287490000
  1     22.8108830000     7.7004600000     3.2287490000
  1     22.8108830000    19.2748610000     3.2287490000
  1     22.8108830000    30.8492620000     3.2287490000
  1      1.3644840000     7.7004600000     3.2287490000
  1      1.3644840000    19.2748610000     3.2287490000
  1      1.3644840000    30.8492620000     3.2287490000
  6     12.8719750000     5.8483250000     3.5961660000
  6     12.8719750000    17.4227250000     3.5961660000
  6     12.8719750000    28.9971260000     3.5961660000
  6     23.5951740000     5.8483250000     3.5961660000
  6     23.5951740000    17.4227250000     3.5961660000
  6     23.5951740000    28.9971260000     3.5961660000
  6      2.1487760000     5.8483250000     3.5961660000
  6      2.1487760000    17.4227250000     3.5961660000
  6      2.1487760000    28.9971260000     3.5961660000
  6     12.6353930000     4.4779040000     3.5631980000
  6     12.6353930000    16.0523050000     3.5631980000
  6     12.6353930000    27.6267050000     3.5631980000
  6     23.3585920000     4.4779040000     3.5631980000
  6     23.3585920000    16.0523050000     3.5631980000
  6     23.3585920000    27.6267050000     3.5631980000
  6      1.9121940000     4.4779040000     3.5631980000
  6      1.9121940000    16.0523050000     3.5631980000
  6      1.9121940000    27.6267050000     3.5631980000
  1     13.3156860000     3.8635470000     3.8102260000
  1     13.3156860000    15.4379470000     3.8102260000
  1     13.3156860000    27.0123480000     3.8102260000
  1     24.0388860000     3.8635470000     3.8102260000
  1     24.0388860000    15.4379470000     3.8102260000
  1     24.0388860000    27.0123480000     3.8102260000
  1      2.5924870000     3.8635470000     3.8102260000
  1      2.5924870000    15.4379470000     3.8102260000
  1      2.5924870000    27.0123480000     3.8102260000
  6     11.3944120000     4.0299750000     3.1641790000
  6     11.3944120000    15.6043750000     3.1641790000
  6     11.3944120000    27.1787760000     3.1641790000
  6     22.1176110000     4.0299750000     3.1641790000
  6     22.1176110000    15.6043750000     3.1641790000
  6     22.1176110000    27.1787760000     3.1641790000
  6      0.6712120000     4.0299750000     3.1641790000
  6      0.6712120000    15.6043750000     3.1641790000
  6      0.6712120000    27.1787760000     3.1641790000
  1     11.2176350000     3.0973100000     3.1423520000
  1     11.2176350000    14.6717100000     3.1423520000
  1     11.2176350000    26.2461110000     3.1423520000
  1     21.9408340000     3.0973100000     3.1423520000
  1     21.9408340000    14.6717100000     3.1423520000
  1     21.9408340000    26.2461110000     3.1423520000
  1      0.4944360000     3.0973100000     3.1423520000
  1      0.4944360000    14.6717100000     3.1423520000
  1      0.4944360000    26.2461110000     3.1423520000
 RECIP-PRIMVEC
    0.0310852482   -0.0000000000    0.0264743576

    0.0000000000    0.0287991890   -0.0000000000

    0.0000000000    0.0000000000    0.1759312862

 RECIP-CONVVEC
    0.0310852482   -0.0000000000    0.0264743576

    0.0000000000    0.0287991890   -0.0000000000

    0.0000000000    0.0000000000    0.1759312862

 WIGNER-SEITZ-PRIMCELL
           4
 -0.1160129E+02 -0.1736160E+02 -0.4977017E+01  -0.8924470E+00 -0.1065566E-15 -0.4511523E+00
 -0.1160129E+02  0.1736160E+02 -0.4977017E+01  -0.8924470E+00 -0.1065566E-15 -0.4511523E+00
 -0.8135736E+01  0.1736160E+02 -0.1183241E+02  -0.8924470E+00 -0.1065566E-15 -0.4511523E+00
 -0.8135736E+01 -0.1736160E+02 -0.1183241E+02  -0.8924470E+00 -0.1065566E-15 -0.4511523E+00
           4
  0.1160129E+02  0.1736160E+02  0.4977017E+01   0.6483860E+00  0.9471798E-16 -0.7613118E+00
  0.1160129E+02 -0.1736160E+02  0.4977017E+01   0.6483860E+00  0.9471798E-16 -0.7613118E+00
 -0.8135736E+01 -0.1736160E+02 -0.1183241E+02   0.6483860E+00  0.9471798E-16 -0.7613118E+00
 -0.8135736E+01  0.1736160E+02 -0.1183241E+02   0.6483860E+00  0.9471798E-16 -0.7613118E+00
           4
 -0.1160129E+02  0.1736160E+02 -0.4977017E+01  -0.6483860E+00 -0.6314532E-16  0.7613118E+00
 -0.1160129E+02 -0.1736160E+02 -0.4977017E+01  -0.6483860E+00 -0.6314532E-16  0.7613118E+00
  0.8135736E+01 -0.1736160E+02  0.1183241E+02  -0.6483860E+00 -0.6314532E-16  0.7613118E+00
  0.8135736E+01  0.1736160E+02  0.1183241E+02  -0.6483860E+00 -0.6314532E-16  0.7613118E+00
           4
 -0.1160129E+02 -0.1736160E+02 -0.4977017E+01  -0.0000000E+00 -0.1000000E+01 -0.0000000E+00
 -0.8135736E+01 -0.1736160E+02 -0.1183241E+02  -0.0000000E+00 -0.1000000E+01 -0.0000000E+00
  0.1160129E+02 -0.1736160E+02  0.4977017E+01  -0.0000000E+00 -0.1000000E+01 -0.0000000E+00
  0.8135736E+01 -0.1736160E+02  0.1183241E+02  -0.0000000E+00 -0.1000000E+01 -0.0000000E+00
           4
  0.8135736E+01  0.1736160E+02  0.1183241E+02   0.0000000E+00  0.1000000E+01  0.0000000E+00
  0.1160129E+02  0.1736160E+02  0.4977017E+01   0.0000000E+00  0.1000000E+01  0.0000000E+00
 -0.8135736E+01  0.1736160E+02 -0.1183241E+02   0.0000000E+00  0.1000000E+01  0.0000000E+00
 -0.1160129E+02  0.1736160E+02 -0.4977017E+01   0.0000000E+00  0.1000000E+01  0.0000000E+00
           4
  0.1160129E+02 -0.1736160E+02  0.4977017E+01   0.8924470E+00  0.1864741E-15  0.4511523E+00
  0.1160129E+02  0.1736160E+02  0.4977017E+01   0.8924470E+00  0.1864741E-15  0.4511523E+00
  0.8135736E+01  0.1736160E+02  0.1183241E+02   0.8924470E+00  0.1864741E-15  0.4511523E+00
  0.8135736E+01 -0.1736160E+02  0.1183241E+02   0.8924470E+00  0.1864741E-15  0.4511523E+00
 WIGNER-SEITZ-PRIMCELL_END
 WIGNER-SEITZ-CONVCELL
           4
 -0.1160129E+02 -0.1736160E+02 -0.4977017E+01  -0.8924470E+00 -0.1065566E-15 -0.4511523E+00
 -0.1160129E+02  0.1736160E+02 -0.4977017E+01  -0.8924470E+00 -0.1065566E-15 -0.4511523E+00
 -0.8135736E+01  0.1736160E+02 -0.1183241E+02  -0.8924470E+00 -0.1065566E-15 -0.4511523E+00
 -0.8135736E+01 -0.1736160E+02 -0.1183241E+02  -0.8924470E+00 -0.1065566E-15 -0.4511523E+00
           4
  0.1160129E+02  0.1736160E+02  0.4977017E+01   0.6483860E+00  0.9471798E-16 -0.7613118E+00
  0.1160129E+02 -0.1736160E+02  0.4977017E+01   0.6483860E+00  0.9471798E-16 -0.7613118E+00
 -0.8135736E+01 -0.1736160E+02 -0.1183241E+02   0.6483860E+00  0.9471798E-16 -0.7613118E+00
 -0.8135736E+01  0.1736160E+02 -0.1183241E+02   0.6483860E+00  0.9471798E-16 -0.7613118E+00
           4
 -0.1160129E+02  0.1736160E+02 -0.4977017E+01  -0.6483860E+00 -0.6314532E-16  0.7613118E+00
 -0.1160129E+02 -0.1736160E+02 -0.4977017E+01  -0.6483860E+00 -0.6314532E-16  0.7613118E+00
  0.8135736E+01 -0.1736160E+02  0.1183241E+02  -0.6483860E+00 -0.6314532E-16  0.7613118E+00
  0.8135736E+01  0.1736160E+02  0.1183241E+02  -0.6483860E+00 -0.6314532E-16  0.7613118E+00
           4
 -0.1160129E+02 -0.1736160E+02 -0.4977017E+01  -0.0000000E+00 -0.1000000E+01 -0.0000000E+00
 -0.8135736E+01 -0.1736160E+02 -0.1183241E+02  -0.0000000E+00 -0.1000000E+01 -0.0000000E+00
  0.1160129E+02 -0.1736160E+02  0.4977017E+01  -0.0000000E+00 -0.1000000E+01 -0.0000000E+00
  0.8135736E+01 -0.1736160E+02  0.1183241E+02  -0.0000000E+00 -0.1000000E+01 -0.0000000E+00
           4
  0.8135736E+01  0.1736160E+02  0.1183241E+02   0.0000000E+00  0.1000000E+01  0.0000000E+00
  0.1160129E+02  0.1736160E+02  0.4977017E+01   0.0000000E+00  0.1000000E+01  0.0000000E+00
 -0.8135736E+01  0.1736160E+02 -0.1183241E+02   0.0000000E+00  0.1000000E+01  0.0000000E+00
 -0.1160129E+02  0.1736160E+02 -0.4977017E+01   0.0000000E+00  0.1000000E+01  0.0000000E+00
           4
  0.1160129E+02 -0.1736160E+02  0.4977017E+01   0.8924470E+00  0.1864741E-15  0.4511523E+00
  0.1160129E+02  0.1736160E+02  0.4977017E+01   0.8924470E+00  0.1864741E-15  0.4511523E+00
  0.8135736E+01  0.1736160E+02  0.1183241E+02   0.8924470E+00  0.1864741E-15  0.4511523E+00
  0.8135736E+01 -0.1736160E+02  0.1183241E+02   0.8924470E+00  0.1864741E-15  0.4511523E+00
 WIGNER-SEITZ-CONVCELL_END
 BRILLOUIN-ZONE-PRIMCELL
           6
 -0.5830389E-01 -0.1439959E-01  0.3697158E-01   0.6104667E-17 -0.1000000E+01 -0.8539843E-16
  0.2721865E-01 -0.1439959E-01 -0.6344594E-01   0.6104667E-17 -0.1000000E+01 -0.8539843E-16
  0.3495185E-01 -0.1439959E-01 -0.5953663E-01   0.6104667E-17 -0.1000000E+01 -0.8539843E-16
  0.5830389E-01 -0.1439959E-01 -0.3697158E-01   0.6104667E-17 -0.1000000E+01 -0.8539843E-16
 -0.2721865E-01 -0.1439959E-01  0.6344594E-01   0.6104667E-17 -0.1000000E+01 -0.8539843E-16
 -0.3495185E-01 -0.1439959E-01  0.5953663E-01   0.6104667E-17 -0.1000000E+01 -0.8539843E-16
           4
 -0.2721865E-01 -0.1439959E-01  0.6344594E-01   0.7613118E+00 -0.2283353E-15  0.6483860E+00
  0.5830389E-01 -0.1439959E-01 -0.3697158E-01   0.7613118E+00 -0.2283353E-15  0.6483860E+00
  0.5830389E-01  0.1439959E-01 -0.3697158E-01   0.7613118E+00 -0.2283353E-15  0.6483860E+00
 -0.2721865E-01  0.1439959E-01  0.6344594E-01   0.7613118E+00 -0.2283353E-15  0.6483860E+00
           4
 -0.2721865E-01  0.1439959E-01  0.6344594E-01  -0.4511523E+00  0.7890749E-16  0.8924470E+00
 -0.3495185E-01  0.1439959E-01  0.5953663E-01  -0.4511523E+00  0.7890749E-16  0.8924470E+00
 -0.3495185E-01 -0.1439959E-01  0.5953663E-01  -0.4511523E+00  0.7890749E-16  0.8924470E+00
 -0.2721865E-01 -0.1439959E-01  0.6344594E-01  -0.4511523E+00  0.7890749E-16  0.8924470E+00
           4
  0.5830389E-01 -0.1439959E-01 -0.3697158E-01   0.6948852E+00 -0.9046145E-15 -0.7191207E+00
  0.3495185E-01 -0.1439959E-01 -0.5953663E-01   0.6948852E+00 -0.9046145E-15 -0.7191207E+00
  0.3495185E-01  0.1439959E-01 -0.5953663E-01   0.6948852E+00 -0.9046145E-15 -0.7191207E+00
  0.5830389E-01  0.1439959E-01 -0.3697158E-01   0.6948852E+00 -0.9046145E-15 -0.7191207E+00
           4
 -0.3495185E-01  0.1439959E-01  0.5953663E-01  -0.6948852E+00 -0.6955976E-15  0.7191207E+00
 -0.5830389E-01  0.1439959E-01  0.3697158E-01  -0.6948852E+00 -0.6955976E-15  0.7191207E+00
 -0.5830389E-01 -0.1439959E-01  0.3697158E-01  -0.6948852E+00 -0.6955976E-15  0.7191207E+00
 -0.3495185E-01 -0.1439959E-01  0.5953663E-01  -0.6948852E+00 -0.6955976E-15  0.7191207E+00
           4
  0.3495185E-01  0.1439959E-01 -0.5953663E-01   0.4511523E+00  0.8689265E-15 -0.8924470E+00
  0.3495185E-01 -0.1439959E-01 -0.5953663E-01   0.4511523E+00  0.8689265E-15 -0.8924470E+00
  0.2721865E-01 -0.1439959E-01 -0.6344594E-01   0.4511523E+00  0.8689265E-15 -0.8924470E+00
  0.2721865E-01  0.1439959E-01 -0.6344594E-01   0.4511523E+00  0.8689265E-15 -0.8924470E+00
           4
  0.2721865E-01  0.1439959E-01 -0.6344594E-01  -0.7613118E+00 -0.2283353E-15 -0.6483860E+00
  0.2721865E-01 -0.1439959E-01 -0.6344594E-01  -0.7613118E+00 -0.2283353E-15 -0.6483860E+00
 -0.5830389E-01 -0.1439959E-01  0.3697158E-01  -0.7613118E+00 -0.2283353E-15 -0.6483860E+00
 -0.5830389E-01  0.1439959E-01  0.3697158E-01  -0.7613118E+00 -0.2283353E-15 -0.6483860E+00
           6
 -0.3495185E-01  0.1439959E-01  0.5953663E-01   0.3197229E-15  0.1000000E+01  0.0000000E+00
 -0.2721865E-01  0.1439959E-01  0.6344594E-01   0.3197229E-15  0.1000000E+01  0.0000000E+00
  0.5830389E-01  0.1439959E-01 -0.3697158E-01   0.3197229E-15  0.1000000E+01  0.0000000E+00
  0.3495185E-01  0.1439959E-01 -0.5953663E-01   0.3197229E-15  0.1000000E+01  0.0000000E+00
  0.2721865E-01  0.1439959E-01 -0.6344594E-01   0.3197229E-15  0.1000000E+01  0.0000000E+00
 -0.5830389E-01  0.1439959E-01  0.3697158E-01   0.3197229E-15  0.1000000E+01  0.0000000E+00
 BRILLOUIN-ZONE-PRIMCELL_END
 BRILLOUIN-ZONE-CONVCELL
           6
 -0.5830389E-01 -0.1439959E-01  0.3697158E-01   0.6104667E-17 -0.1000000E+01 -0.8539843E-16
  0.2721865E-01 -0.1439959E-01 -0.6344594E-01   0.6104667E-17 -0.1000000E+01 -0.8539843E-16
  0.3495185E-01 -0.1439959E-01 -0.5953663E-01   0.6104667E-17 -0.1000000E+01 -0.8539843E-16
  0.5830389E-01 -0.1439959E-01 -0.3697158E-01   0.6104667E-17 -0.1000000E+01 -0.8539843E-16
 -0.2721865E-01 -0.1439959E-01  0.6344594E-01   0.6104667E-17 -0.1000000E+01 -0.8539843E-16
 -0.3495185E-01 -0.1439959E-01  0.5953663E-01   0.6104667E-17 -0.1000000E+01 -0.8539843E-16
           4
 -0.2721865E-01 -0.1439959E-01  0.6344594E-01   0.7613118E+00 -0.2283353E-15  0.6483860E+00
  0.5830389E-01 -0.1439959E-01 -0.3697158E-01   0.7613118E+00 -0.2283353E-15  0.6483860E+00
  0.5830389E-01  0.1439959E-01 -0.3697158E-01   0.7613118E+00 -0.2283353E-15  0.6483860E+00
 -0.2721865E-01  0.1439959E-01  0.6344594E-01   0.7613118E+00 -0.2283353E-15  0.6483860E+00
           4
 -0.2721865E-01  0.1439959E-01  0.6344594E-01  -0.4511523E+00  0.7890749E-16  0.8924470E+00
 -0.3495185E-01  0.1439959E-01  0.5953663E-01  -0.4511523E+00  0.7890749E-16  0.8924470E+00
 -0.3495185E-01 -0.1439959E-01  0.5953663E-01  -0.4511523E+00  0.7890749E-16  0.8924470E+00
 -0.2721865E-01 -0.1439959E-01  0.6344594E-01  -0.4511523E+00  0.7890749E-16  0.8924470E+00
           4
  0.5830389E-01 -0.1439959E-01 -0.3697158E-01   0.6948852E+00 -0.9046145E-15 -0.7191207E+00
  0.3495185E-01 -0.1439959E-01 -0.5953663E-01   0.6948852E+00 -0.9046145E-15 -0.7191207E+00
  0.3495185E-01  0.1439959E-01 -0.5953663E-01   0.6948852E+00 -0.9046145E-15 -0.7191207E+00
  0.5830389E-01  0.1439959E-01 -0.3697158E-01   0.6948852E+00 -0.9046145E-15 -0.7191207E+00
           4
 -0.3495185E-01  0.1439959E-01  0.5953663E-01  -0.6948852E+00 -0.6955976E-15  0.7191207E+00
 -0.5830389E-01  0.1439959E-01  0.3697158E-01  -0.6948852E+00 -0.6955976E-15  0.7191207E+00
 -0.5830389E-01 -0.1439959E-01  0.3697158E-01  -0.6948852E+00 -0.6955976E-15  0.7191207E+00
 -0.3495185E-01 -0.1439959E-01  0.5953663E-01  -0.6948852E+00 -0.6955976E-15  0.7191207E+00
           4
  0.3495185E-01  0.1439959E-01 -0.5953663E-01   0.4511523E+00  0.8689265E-15 -0.8924470E+00
  0.3495185E-01 -0.1439959E-01 -0.5953663E-01   0.4511523E+00  0.8689265E-15 -0.8924470E+00
  0.2721865E-01 -0.1439959E-01 -0.6344594E-01   0.4511523E+00  0.8689265E-15 -0.8924470E+00
  0.2721865E-01  0.1439959E-01 -0.6344594E-01   0.4511523E+00  0.8689265E-15 -0.8924470E+00
           4
  0.2721865E-01  0.1439959E-01 -0.6344594E-01  -0.7613118E+00 -0.2283353E-15 -0.6483860E+00
  0.2721865E-01 -0.1439959E-01 -0.6344594E-01  -0.7613118E+00 -0.2283353E-15 -0.6483860E+00
 -0.5830389E-01 -0.1439959E-01  0.3697158E-01  -0.7613118E+00 -0.2283353E-15 -0.6483860E+00
 -0.5830389E-01  0.1439959E-01  0.3697158E-01  -0.7613118E+00 -0.2283353E-15 -0.6483860E+00
           6
 -0.3495185E-01  0.1439959E-01  0.5953663E-01   0.3197229E-15  0.1000000E+01  0.0000000E+00
 -0.2721865E-01  0.1439959E-01  0.6344594E-01   0.3197229E-15  0.1000000E+01  0.0000000E+00
  0.5830389E-01  0.1439959E-01 -0.3697158E-01   0.3197229E-15  0.1000000E+01  0.0000000E+00
  0.3495185E-01  0.1439959E-01 -0.5953663E-01   0.3197229E-15  0.1000000E+01  0.0000000E+00
  0.2721865E-01  0.1439959E-01 -0.6344594E-01   0.3197229E-15  0.1000000E+01  0.0000000E+00
 -0.5830389E-01  0.1439959E-01  0.3697158E-01   0.3197229E-15  0.1000000E+01  0.0000000E+00
 BRILLOUIN-ZONE-CONVCELL_END
 ATOMS
    8   14.3906600000    7.5313240000    4.0264410000
    8   14.3906600000   19.1057240000    4.0264410000
    8   14.3906600000   30.6801250000    4.0264410000
    8   25.1138600000    7.5313240000    4.0264410000
    8   25.1138600000   19.1057240000    4.0264410000
    8   25.1138600000   30.6801250000    4.0264410000
    8    3.6674610000    7.5313240000    4.0264410000
    8    3.6674610000   19.1057240000    4.0264410000
    8    3.6674610000   30.6801250000    4.0264410000
    8   15.0046080000    5.4941130000    4.3606630000
    8   15.0046080000   17.0685140000    4.3606630000
    8   15.0046080000   28.6429150000    4.3606630000
    8   25.7278070000    5.4941130000    4.3606630000
    8   25.7278070000   17.0685140000    4.3606630000
    8   25.7278070000   28.6429150000    4.3606630000
    8    4.2814080000    5.4941130000    4.3606630000
    8    4.2814080000   17.0685140000    4.3606630000
    8    4.2814080000   28.6429150000    4.3606630000
    7   14.1569150000    6.3215670000    4.0150730000
    7   14.1569150000   17.8959680000    4.0150730000
    7   14.1569150000   29.4703690000    4.0150730000
    7   24.8801140000    6.3215670000    4.0150730000
    7   24.8801140000   17.8959680000    4.0150730000
    7   24.8801140000   29.4703690000    4.0150730000
    7    3.4337160000    6.3215670000    4.0150730000
    7    3.4337160000   17.8959680000    4.0150730000
    7    3.4337160000   29.4703690000    4.0150730000
    6   10.3831730000    4.9409030000    2.7867420000
    6   10.3831730000   16.5153040000    2.7867420000
    6   10.3831730000   28.0897050000    2.7867420000
    6   21.1063730000    4.9409030000    2.7867420000
    6   21.1063730000   16.5153040000    2.7867420000
    6   21.1063730000   28.0897050000    2.7867420000
    6   -0.3400260000    4.9409030000    2.7867420000
    6   -0.3400260000   16.5153040000    2.7867420000
    6   -0.3400260000   28.0897050000    2.7867420000
    6   10.6447410000    6.3286510000    2.8117510000
    6   10.6447410000   17.9030510000    2.8117510000
    6   10.6447410000   29.4774520000    2.8117510000
    6   21.3679400000    6.3286510000    2.8117510000
    6   21.3679400000   17.9030510000    2.8117510000
    6   21.3679400000   29.4774520000    2.8117510000
    6   -0.0784590000    6.3286510000    2.8117510000
    6   -0.0784590000   17.9030510000    2.8117510000
    6   -0.0784590000   29.4774520000    2.8117510000
    6   11.8951250000    6.7696350000    3.2136300000
    6   11.8951250000   18.3440360000    3.2136300000
    6   11.8951250000   29.9184370000    3.2136300000
    6   22.6183250000    6.7696350000    3.2136300000
    6   22.6183250000   18.3440360000    3.2136300000
    6   22.6183250000   29.9184370000    3.2136300000
    6    1.1719260000    6.7696350000    3.2136300000
    6    1.1719260000   18.3440360000    3.2136300000
    6    1.1719260000   29.9184370000    3.2136300000
    1   12.0876840000    7.7004600000    3.2287490000
    1   12.0876840000   19.2748610000    3.2287490000
    1   12.0876840000   30.8492620000    3.2287490000
    1   22.8108830000    7.7004600000    3.2287490000
    1   22.8108830000   19.2748610000    3.2287490000
    1   22.8108830000   30.8492620000    3.2287490000
    1    1.3644840000    7.7004600000    3.2287490000
    1    1.3644840000   19.2748610000    3.2287490000
    1    1.3644840000   30.8492620000    3.2287490000
    6   12.8719750000    5.8483250000    3.5961660000
    6   12.8719750000   17.4227250000    3.5961660000
    6   12.8719750000   28.9971260000    3.5961660000
    6   23.5951740000    5.8483250000    3.5961660000
    6   23.5951740000   17.4227250000    3.5961660000
    6   23.5951740000   28.9971260000    3.5961660000
    6    2.1487760000    5.8483250000    3.5961660000
    6    2.1487760000   17.4227250000    3.5961660000
    6    2.1487760000   28.9971260000    3.5961660000
    6   12.6353930000    4.4779040000    3.5631980000
    6   12.6353930000   16.0523050000    3.5631980000
    6   12.6353930000   27.6267050000    3.5631980000
    6   23.3585920000    4.4779040000    3.5631980000
    6   23.3585920000   16.0523050000    3.5631980000
    6   23.3585920000   27.6267050000    3.5631980000
    6    1.9121940000    4.4779040000    3.5631980000
    6    1.9121940000   16.0523050000    3.5631980000
    6    1.9121940000   27.6267050000    3.5631980000
    1   13.3156860000    3.8635470000    3.8102260000
    1   13.3156860000   15.4379470000    3.8102260000
    1   13.3156860000   27.0123480000    3.8102260000
    1   24.0388860000    3.8635470000    3.8102260000
    1   24.0388860000   15.4379470000    3.8102260000
    1   24.0388860000   27.0123480000    3.8102260000
    1    2.5924870000    3.8635470000    3.8102260000
    1    2.5924870000   15.4379470000    3.8102260000
    1    2.5924870000   27.0123480000    3.8102260000
    6   11.3944120000    4.0299750000    3.1641790000
    6   11.3944120000   15.6043750000    3.1641790000
    6   11.3944120000   27.1787760000    3.1641790000
    6   22.1176110000    4.0299750000    3.1641790000
    6   22.1176110000   15.6043750000    3.1641790000
    6   22.1176110000   27.1787760000    3.1641790000
    6    0.6712120000    4.0299750000    3.1641790000
    6    0.6712120000   15.6043750000    3.1641790000
    6    0.6712120000   27.1787760000    3.1641790000
    1   11.2176350000    3.0973100000    3.1423520000