 INFO
nunit      1    1    1
unit   cell
celltype   primcell
shape   parapipedal
 END_INFO
 DIM-GROUP
           3           1
 PRIMVEC
   32.1696000000    0.0000000000    0.0000000000
    0.0000000000   34.7232000000    0.0000000000
   -3.0194622790    0.0000000000    3.5453451190
 CONVVEC
   32.1696000000    0.0000000000    0.0000000000
    0.0000000000   34.7232000000    0.0000000000
   -3.0194622790    0.0000000000    3.5453451190
 PRIMCOORD
         171           1
  8     17.6890280000     6.0802910000     3.2250480000
  8     17.0750700000     4.0430780000     2.8908270000
  7     16.8413350000     5.2528380000     2.8794590000
  1     16.0001000000     7.7108760000     2.6746070000
  6     15.5563880000     5.7260950000     2.4605470000
  6     15.3198160000     7.0965060000     2.4275790000
  1     14.7721070000     3.8739570000     2.0931310000
  6     14.5795270000     4.8047720000     2.0780120000
  6     14.0788340000     7.5444360000     2.0285610000
  1     13.9020460000     8.4771020000     2.0067340000
  1     11.4509340000     4.4318440000     1.8100670000
  6     13.3291690000     5.2457780000     1.6761510000
  6     13.0675910000     6.6335290000     1.6511420000
  1     12.5672630000     3.3600530000     1.4008170000
  6     12.2511560000     4.2781360000     1.2663330000
  7     11.8653470000     7.1087930000     1.2418920000
  1     11.7222490000     7.9770880000     1.2132450000
  1     11.2291220000     6.5499620000     1.0040730000
  1     12.0334580000     4.4133250000     0.3202850000
  8     17.6890280000    17.6547070000     3.2250480000
  8     17.0750700000    15.6174940000     2.8908270000
  7     16.8413350000    16.8272540000     2.8794590000
  1     16.0001000000    19.2852920000     2.6746070000
  6     15.5563880000    17.3005110000     2.4605470000
  6     15.3198160000    18.6709220000     2.4275790000
  1     14.7721070000    15.4483730000     2.0931310000
  6     14.5795270000    16.3791880000     2.0780120000
  6     14.0788340000    19.1188520000     2.0285610000
  1     13.9020460000    20.0515180000     2.0067340000
  1     11.4509340000    16.0062600000     1.8100670000
  6     13.3291690000    16.8201940000     1.6761510000
  6     13.0675910000    18.2079450000     1.6511420000
  1     12.5672630000    14.9344690000     1.4008170000
  6     12.2511560000    15.8525520000     1.2663330000
  7     11.8653470000    18.6832090000     1.2418920000
  1     11.7222490000    19.5515040000     1.2132450000
  1     11.2291220000    18.1243780000     1.0040730000
  1     12.0334580000    15.9877410000     0.3202850000
  8     17.6890280000    29.2291230000     3.2250480000
  8     17.0750700000    27.1919100000     2.8908270000
  7     16.8413350000    28.4016700000     2.8794590000
  1     16.0001000000    30.8597080000     2.6746070000
  6     15.5563880000    28.8749270000     2.4605470000
  6     15.3198160000    30.2453380000     2.4275790000
  1     14.7721070000    27.0227890000     2.0931310000
  6     14.5795270000    27.9536040000     2.0780120000
  6     14.0788340000    30.6932680000     2.0285610000
  1     13.9020460000    31.6259340000     2.0067340000
  1     11.4509340000    27.5806760000     1.8100670000
  6     13.3291690000    28.3946100000     1.6761510000
  6     13.0675910000    29.7823610000     1.6511420000
  1     12.5672630000    26.5088850000     1.4008170000
  6     12.2511560000    27.4269680000     1.2663330000
  7     11.8653470000    30.2576250000     1.2418920000
  1     11.7222490000    31.1259200000     1.2132450000
  1     11.2291220000    29.6987940000     1.0040730000
  1     12.0334580000    27.5621570000     0.3202850000
  8     28.4122430000     6.0802910000     3.2250480000
  8     27.7982850000     4.0430780000     2.8908270000
  7     27.5645500000     5.2528380000     2.8794590000
  1     26.7233150000     7.7108760000     2.6746070000
  6     26.2796030000     5.7260950000     2.4605470000
  6     26.0430310000     7.0965060000     2.4275790000
  1     25.4953220000     3.8739570000     2.0931310000
  6     25.3027420000     4.8047720000     2.0780120000
  6     24.8020490000     7.5444360000     2.0285610000
  1     24.6252610000     8.4771020000     2.0067340000
  1     22.1741490000     4.4318440000     1.8100670000
  6     24.0523840000     5.2457780000     1.6761510000
  6     23.7908060000     6.6335290000     1.6511420000
  1     23.2904780000     3.3600530000     1.4008170000
  6     22.9743710000     4.2781360000     1.2663330000
  7     22.5885620000     7.1087930000     1.2418920000
  1     22.4454640000     7.9770880000     1.2132450000
  1     21.9523370000     6.5499620000     1.0040730000
  1     22.7566730000     4.4133250000     0.3202850000
  8     28.4122430000    17.6547070000     3.2250480000
  8     27.7982850000    15.6174940000     2.8908270000
  7     27.5645500000    16.8272540000     2.8794590000
  1     26.7233150000    19.2852920000     2.6746070000
  6     26.2796030000    17.3005110000     2.4605470000
  6     26.0430310000    18.6709220000     2.4275790000
  1     25.4953220000    15.4483730000     2.0931310000
  6     25.3027420000    16.3791880000     2.0780120000
  6     24.8020490000    19.1188520000     2.0285610000
  1     24.6252610000    20.0515180000     2.0067340000
  1     22.1741490000    16.0062600000     1.8100670000
  6     24.0523840000    16.8201940000     1.6761510000
  6     23.7908060000    18.2079450000     1.6511420000
  1     23.2904780000    14.9344690000     1.4008170000
  6     22.9743710000    15.8525520000     1.2663330000
  7     22.5885620000    18.6832090000     1.2418920000
  1     22.4454640000    19.5515040000     1.2132450000
  1     21.9523370000    18.1243780000     1.0040730000
  1     22.7566730000    15.9877410000     0.3202850000
  8     28.4122430000    29.2291230000     3.2250480000
  8     27.7982850000    27.1919100000     2.8908270000
  7     27.5645500000    28.4016700000     2.8794590000
  1     26.7233150000    30.8597080000     2.6746070000
  6     26.2796030000    28.8749270000     2.4605470000
  6     26.0430310000    30.2453380000     2.4275790000
  1     25.4953220000    27.0227890000     2.0931310000
  6     25.3027420000    27.9536040000     2.0780120000
  6     24.8020490000    30.6932680000     2.0285610000
  1     24.6252610000    31.6259340000     2.0067340000
  1     22.1741490000    27.5806760000     1.8100670000
  6     24.0523840000    28.3946100000     1.6761510000
  6     23.7908060000    29.7823610000     1.6511420000
  1     23.2904780000    26.5088850000     1.4008170000
  6     22.9743710000    27.4269680000     1.2663330000
  7     22.5885620000    30.2576250000     1.2418920000
  1     22.4454640000    31.1259200000     1.2132450000
  1     21.9523370000    29.6987940000     1.0040730000
  1     22.7566730000    27.5621570000     0.3202850000
  8      6.9658130000     6.0802910000     3.2250480000
  8      6.3518550000     4.0430780000     2.8908270000
  7      6.1181200000     5.2528380000     2.8794590000
  1      5.2768850000     7.7108760000     2.6746070000
  6      4.8331730000     5.7260950000     2.4605470000
  6      4.5966010000     7.0965060000     2.4275790000
  1      4.0488920000     3.8739570000     2.0931310000
  6      3.8563120000     4.8047720000     2.0780120000
  6      3.3556190000     7.5444360000     2.0285610000
  1      3.1788310000     8.4771020000     2.0067340000
  1      0.7277190000     4.4318440000     1.8100670000
  6      2.6059540000     5.2457780000     1.6761510000
  6      2.3443760000     6.6335290000     1.6511420000
  1      1.8440480000     3.3600530000     1.4008170000
  6      1.5279410000     4.2781360000     1.2663330000
  7      1.1421320000     7.1087930000     1.2418920000
  1      0.9990340000     7.9770880000     1.2132450000
  1      0.5059070000     6.5499620000     1.0040730000
  1      1.3102430000     4.4133250000     0.3202850000
  8      6.9658130000    17.6547070000     3.2250480000
  8      6.3518550000    15.6174940000     2.8908270000
  7      6.1181200000    16.8272540000     2.8794590000
  1      5.2768850000    19.2852920000     2.6746070000
  6      4.8331730000    17.3005110000     2.4605470000
  6      4.5966010000    18.6709220000     2.4275790000
  1      4.0488920000    15.4483730000     2.0931310000
  6      3.8563120000    16.3791880000     2.0780120000
  6      3.3556190000    19.1188520000     2.0285610000
  1      3.1788310000    20.0515180000     2.0067340000
  1      0.7277190000    16.0062600000     1.8100670000
  6      2.6059540000    16.8201940000     1.6761510000
  6      2.3443760000    18.2079450000     1.6511420000
  1      1.8440480000    14.9344690000     1.4008170000
  6      1.5279410000    15.8525520000     1.2663330000
  7      1.1421320000    18.6832090000     1.2418920000
  1      0.9990340000    19.5515040000     1.2132450000
  1      0.5059070000    18.1243780000     1.0040730000
  1      1.3102430000    15.9877410000     0.3202850000
  8      6.9658130000    29.2291230000     3.2250480000
  8      6.3518550000    27.1919100000     2.8908270000
  7      6.1181200000    28.4016700000     2.8794590000
  1      5.2768850000    30.8597080000     2.6746070000
  6      4.8331730000    28.8749270000     2.4605470000
  6      4.5966010000    30.2453380000     2.4275790000
  1      4.0488920000    27.0227890000     2.0931310000
  6      3.8563120000    27.9536040000     2.0780120000
  6      3.3556190000    30.6932680000     2.0285610000
  1      3.1788310000    31.6259340000     2.0067340000
  1      0.7277190000    27.5806760000     1.8100670000
  6      2.6059540000    28.3946100000     1.6761510000
  6      2.3443760000    29.7823610000     1.6511420000
  1      1.8440480000    26.5088850000     1.4008170000
  6      1.5279410000    27.4269680000     1.2663330000
  7      1.1421320000    30.2576250000     1.2418920000
  1      0.9990340000    31.1259200000     1.2132450000
  1      0.5059070000    29.6987940000     1.0040730000
  1      1.3102430000    27.5621570000     0.3202850000
 CONVCOORD
         171           1
  8     17.6890280000     6.0802910000     3.2250480000
  8     17.0750700000     4.0430780000     2.8908270000
  7     16.8413350000     5.2528380000     2.8794590000
  1     16.0001000000     7.7108760000     2.6746070000
  6     15.5563880000     5.7260950000     2.4605470000
  6     15.3198160000     7.0965060000     2.4275790000
  1     14.7721070000     3.8739570000     2.0931310000
  6     14.5795270000     4.8047720000     2.0780120000
  6     14.0788340000     7.5444360000     2.0285610000
  1     13.9020460000     8.4771020000     2.0067340000
  1     11.4509340000     4.4318440000     1.8100670000
  6     13.3291690000     5.2457780000     1.6761510000
  6     13.0675910000     6.6335290000     1.6511420000
  1     12.5672630000     3.3600530000     1.4008170000
  6     12.2511560000     4.2781360000     1.2663330000
  7     11.8653470000     7.1087930000     1.2418920000
  1     11.7222490000     7.9770880000     1.2132450000
  1     11.2291220000     6.5499620000     1.0040730000
  1     12.0334580000     4.4133250000     0.3202850000
  8     17.6890280000    17.6547070000     3.2250480000
  8     17.0750700000    15.6174940000     2.8908270000
  7     16.8413350000    16.8272540000     2.8794590000
  1     16.0001000000    19.2852920000     2.6746070000
  6     15.5563880000    17.3005110000     2.4605470000
  6     15.3198160000    18.6709220000     2.4275790000
  1     14.7721070000    15.4483730000     2.0931310000
  6     14.5795270000    16.3791880000     2.0780120000
  6     14.0788340000    19.1188520000     2.0285610000
  1     13.9020460000    20.0515180000     2.0067340000
  1     11.4509340000    16.0062600000     1.8100670000
  6     13.3291690000    16.8201940000     1.6761510000
  6     13.0675910000    18.2079450000     1.6511420000
  1     12.5672630000    14.9344690000     1.4008170000
  6     12.2511560000    15.8525520000     1.2663330000
  7     11.8653470000    18.6832090000     1.2418920000
  1     11.7222490000    19.5515040000     1.2132450000
  1     11.2291220000    18.1243780000     1.0040730000
  1     12.0334580000    15.9877410000     0.3202850000
  8     17.6890280000    29.2291230000     3.2250480000
  8     17.0750700000    27.1919100000     2.8908270000
  7     16.8413350000    28.4016700000     2.8794590000
  1     16.0001000000    30.8597080000     2.6746070000
  6     15.5563880000    28.8749270000     2.4605470000
  6     15.3198160000    30.2453380000     2.4275790000
  1     14.7721070000    27.0227890000     2.0931310000
  6     14.5795270000    27.9536040000     2.0780120000
  6     14.0788340000    30.6932680000     2.0285610000
  1     13.9020460000    31.6259340000     2.0067340000
  1     11.4509340000    27.5806760000     1.8100670000
  6     13.3291690000    28.3946100000     1.6761510000
  6     13.0675910000    29.7823610000     1.6511420000
  1     12.5672630000    26.5088850000     1.4008170000
  6     12.2511560000    27.4269680000     1.2663330000
  7     11.8653470000    30.2576250000     1.2418920000
  1     11.7222490000    31.1259200000     1.2132450000
  1     11.2291220000    29.6987940000     1.0040730000
  1     12.0334580000    27.5621570000     0.3202850000
  8     28.4122430000     6.0802910000     3.2250480000
  8     27.7982850000     4.0430780000     2.8908270000
  7     27.5645500000     5.2528380000     2.8794590000
  1     26.7233150000     7.7108760000     2.6746070000
  6     26.2796030000     5.7260950000     2.4605470000
  6     26.0430310000     7.0965060000     2.4275790000
  1     25.4953220000     3.8739570000     2.0931310000
  6     25.3027420000     4.8047720000     2.0780120000
  6     24.8020490000     7.5444360000     2.0285610000
  1     24.6252610000     8.4771020000     2.0067340000
  1     22.1741490000     4.4318440000     1.8100670000
  6     24.0523840000     5.2457780000     1.6761510000
  6     23.7908060000     6.6335290000     1.6511420000
  1     23.2904780000     3.3600530000     1.4008170000
  6     22.9743710000     4.2781360000     1.2663330000
  7     22.5885620000     7.1087930000     1.2418920000
  1     22.4454640000     7.9770880000     1.2132450000
  1     21.9523370000     6.5499620000     1.0040730000
  1     22.7566730000     4.4133250000     0.3202850000
  8     28.4122430000    17.6547070000     3.2250480000
  8     27.7982850000    15.6174940000     2.8908270000
  7     27.5645500000    16.8272540000     2.8794590000
  1     26.7233150000    19.2852920000     2.6746070000
  6     26.2796030000    17.3005110000     2.4605470000
  6     26.0430310000    18.6709220000     2.4275790000
  1     25.4953220000    15.4483730000     2.0931310000
  6     25.3027420000    16.3791880000     2.0780120000
  6     24.8020490000    19.1188520000     2.0285610000
  1     24.6252610000    20.0515180000     2.0067340000
  1     22.1741490000    16.0062600000     1.8100670000
  6     24.0523840000    16.8201940000     1.6761510000
  6     23.7908060000    18.2079450000     1.6511420000
  1     23.2904780000    14.9344690000     1.4008170000
  6     22.9743710000    15.8525520000     1.2663330000
  7     22.5885620000    18.6832090000     1.2418920000
  1     22.4454640000    19.5515040000     1.2132450000
  1     21.9523370000    18.1243780000     1.0040730000
  1     22.7566730000    15.9877410000     0.3202850000
  8     28.4122430000    29.2291230000     3.2250480000
  8     27.7982850000    27.1919100000     2.8908270000
  7     27.5645500000    28.4016700000     2.8794590000
  1     26.7233150000    30.8597080000     2.6746070000
  6     26.2796030000    28.8749270000     2.4605470000
  6     26.0430310000    30.2453380000     2.4275790000
  1     25.4953220000    27.0227890000     2.0931310000
  6     25.3027420000    27.9536040000     2.0780120000
  6     24.8020490000    30.6932680000     2.0285610000
  1     24.6252610000    31.6259340000     2.0067340000
  1     22.1741490000    27.5806760000     1.8100670000
  6     24.0523840000    28.3946100000     1.6761510000
  6     23.7908060000    29.7823610000     1.6511420000
  1     23.2904780000    26.5088850000     1.4008170000
  6     22.9743710000    27.4269680000     1.2663330000
  7     22.5885620000    30.2576250000     1.2418920000
  1     22.4454640000    31.1259200000     1.2132450000
  1     21.9523370000    29.6987940000     1.0040730000
  1     22.7566730000    27.5621570000     0.3202850000
  8      6.9658130000     6.0802910000     3.2250480000
  8      6.3518550000     4.0430780000     2.8908270000
  7      6.1181200000     5.2528380000     2.8794590000
  1      5.2768850000     7.7108760000     2.6746070000
  6      4.8331730000     5.7260950000     2.4605470000
  6      4.5966010000     7.0965060000     2.4275790000
  1      4.0488920000     3.8739570000     2.0931310000
  6      3.8563120000     4.8047720000     2.0780120000
  6      3.3556190000     7.5444360000     2.0285610000
  1      3.1788310000     8.4771020000     2.0067340000
  1      0.7277190000     4.4318440000     1.8100670000
  6      2.6059540000     5.2457780000     1.6761510000
  6      2.3443760000     6.6335290000     1.6511420000
  1      1.8440480000     3.3600530000     1.4008170000
  6      1.5279410000     4.2781360000     1.2663330000
  7      1.1421320000     7.1087930000     1.2418920000
  1      0.9990340000     7.9770880000     1.2132450000
  1      0.5059070000     6.5499620000     1.0040730000
  1      1.3102430000     4.4133250000     0.3202850000
  8      6.9658130000    17.6547070000     3.2250480000
  8      6.3518550000    15.6174940000     2.8908270000
  7      6.1181200000    16.8272540000     2.8794590000
  1      5.2768850000    19.2852920000     2.6746070000
  6      4.8331730000    17.3005110000     2.4605470000
  6      4.5966010000    18.6709220000     2.4275790000
  1      4.0488920000    15.4483730000     2.0931310000
  6      3.8563120000    16.3791880000     2.0780120000
  6      3.3556190000    19.1188520000     2.0285610000
  1      3.1788310000    20.0515180000     2.0067340000
  1      0.7277190000    16.0062600000     1.8100670000
  6      2.6059540000    16.8201940000     1.6761510000
  6      2.3443760000    18.2079450000     1.6511420000
  1      1.8440480000    14.9344690000     1.4008170000
  6      1.5279410000    15.8525520000     1.2663330000
  7      1.1421320000    18.6832090000     1.2418920000
  1      0.9990340000    19.5515040000     1.2132450000
  1      0.5059070000    18.1243780000     1.0040730000
  1      1.3102430000    15.9877410000     0.3202850000
  8      6.9658130000    29.2291230000     3.2250480000
  8      6.3518550000    27.1919100000     2.8908270000
  7      6.1181200000    28.4016700000     2.8794590000
  1      5.2768850000    30.8597080000     2.6746070000
  6      4.8331730000    28.8749270000     2.4605470000
  6      4.5966010000    30.2453380000     2.4275790000
  1      4.0488920000    27.0227890000     2.0931310000
  6      3.8563120000    27.9536040000     2.0780120000
  6      3.3556190000    30.6932680000     2.0285610000
  1      3.1788310000    31.6259340000     2.0067340000
  1      0.7277190000    27.5806760000     1.8100670000
  6      2.6059540000    28.3946100000     1.6761510000
  6      2.3443760000    29.7823610000     1.6511420000
  1      1.8440480000    26.5088850000     1.4008170000
  6      1.5279410000    27.4269680000     1.2663330000
  7      1.1421320000    30.2576250000     1.2418920000
  1      0.9990340000    31.1259200000     1.2132450000
  1      0.5059070000    29.6987940000     1.0040730000
  1      1.3102430000    27.5621570000     0.3202850000
 RECIP-PRIMVEC
    0.0310852482   -0.0000000000    0.0264743576

    0.0000000000    0.0287991890   -0.0000000000

    0.0000000000    0.0000000000    0.2820599875

 RECIP-CONVVEC
    0.0310852482   -0.0000000000    0.0264743576

    0.0000000000    0.0287991890   -0.0000000000

    0.0000000000    0.0000000000    0.2820599875

 WIGNER-SEITZ-PRIMCELL
           4
 -0.1206828E+02 -0.1736160E+02 -0.7219719E+01  -0.9650992E+00  0.1987348E-16 -0.2618845E+00
 -0.1206828E+02  0.1736160E+02 -0.7219719E+01  -0.9650992E+00  0.1987348E-16 -0.2618845E+00
 -0.1072001E+02  0.1736160E+02 -0.1218837E+02  -0.9650992E+00  0.1987348E-16 -0.2618845E+00
 -0.1072001E+02 -0.1736160E+02 -0.1218837E+02  -0.9650992E+00  0.1987348E-16 -0.2618845E+00
           4
  0.1206828E+02  0.1736160E+02  0.7219719E+01   0.6483860E+00  0.0000000E+00 -0.7613118E+00
  0.1206828E+02 -0.1736160E+02  0.7219719E+01   0.6483860E+00  0.0000000E+00 -0.7613118E+00
 -0.1072001E+02 -0.1736160E+02 -0.1218837E+02   0.6483860E+00  0.0000000E+00 -0.7613118E+00
 -0.1072001E+02  0.1736160E+02 -0.1218837E+02   0.6483860E+00  0.0000000E+00 -0.7613118E+00
           4
 -0.1206828E+02  0.1736160E+02 -0.7219719E+01  -0.6483860E+00 -0.0000000E+00  0.7613118E+00
 -0.1206828E+02 -0.1736160E+02 -0.7219719E+01  -0.6483860E+00 -0.0000000E+00  0.7613118E+00
  0.1072001E+02 -0.1736160E+02  0.1218837E+02  -0.6483860E+00 -0.0000000E+00  0.7613118E+00
  0.1072001E+02  0.1736160E+02  0.1218837E+02  -0.6483860E+00 -0.0000000E+00  0.7613118E+00
           4
 -0.1206828E+02 -0.1736160E+02 -0.7219719E+01  -0.0000000E+00 -0.1000000E+01 -0.0000000E+00
 -0.1072001E+02 -0.1736160E+02 -0.1218837E+02  -0.0000000E+00 -0.1000000E+01 -0.0000000E+00
  0.1206828E+02 -0.1736160E+02  0.7219719E+01  -0.0000000E+00 -0.1000000E+01 -0.0000000E+00
  0.1072001E+02 -0.1736160E+02  0.1218837E+02  -0.0000000E+00 -0.1000000E+01 -0.0000000E+00
           4
  0.1072001E+02  0.1736160E+02  0.1218837E+02  -0.4946498E-15  0.1000000E+01  0.8155772E-15
  0.1206828E+02  0.1736160E+02  0.7219719E+01  -0.4946498E-15  0.1000000E+01  0.8155772E-15
 -0.1072001E+02  0.1736160E+02 -0.1218837E+02  -0.4946498E-15  0.1000000E+01  0.8155772E-15
 -0.1206828E+02  0.1736160E+02 -0.7219719E+01  -0.4946498E-15  0.1000000E+01  0.8155772E-15
           4
  0.1206828E+02 -0.1736160E+02  0.7219719E+01   0.9650992E+00 -0.1490511E-15  0.2618845E+00
  0.1206828E+02  0.1736160E+02  0.7219719E+01   0.9650992E+00 -0.1490511E-15  0.2618845E+00
  0.1072001E+02  0.1736160E+02  0.1218837E+02   0.9650992E+00 -0.1490511E-15  0.2618845E+00
  0.1072001E+02 -0.1736160E+02  0.1218837E+02   0.9650992E+00 -0.1490511E-15  0.2618845E+00
 WIGNER-SEITZ-PRIMCELL_END
 WIGNER-SEITZ-CONVCELL
           4
 -0.1206828E+02 -0.1736160E+02 -0.7219719E+01  -0.9650992E+00  0.1987348E-16 -0.2618845E+00
 -0.1206828E+02  0.1736160E+02 -0.7219719E+01  -0.9650992E+00  0.1987348E-16 -0.2618845E+00
 -0.1072001E+02  0.1736160E+02 -0.1218837E+02  -0.9650992E+00  0.1987348E-16 -0.2618845E+00
 -0.1072001E+02 -0.1736160E+02 -0.1218837E+02  -0.9650992E+00  0.1987348E-16 -0.2618845E+00
           4
  0.1206828E+02  0.1736160E+02  0.7219719E+01   0.6483860E+00  0.0000000E+00 -0.7613118E+00
  0.1206828E+02 -0.1736160E+02  0.7219719E+01   0.6483860E+00  0.0000000E+00 -0.7613118E+00
 -0.1072001E+02 -0.1736160E+02 -0.1218837E+02   0.6483860E+00  0.0000000E+00 -0.7613118E+00
 -0.1072001E+02  0.1736160E+02 -0.1218837E+02   0.6483860E+00  0.0000000E+00 -0.7613118E+00
           4
 -0.1206828E+02  0.1736160E+02 -0.7219719E+01  -0.6483860E+00 -0.0000000E+00  0.7613118E+00
 -0.1206828E+02 -0.1736160E+02 -0.7219719E+01  -0.6483860E+00 -0.0000000E+00  0.7613118E+00
  0.1072001E+02 -0.1736160E+02  0.1218837E+02  -0.6483860E+00 -0.0000000E+00  0.7613118E+00
  0.1072001E+02  0.1736160E+02  0.1218837E+02  -0.6483860E+00 -0.0000000E+00  0.7613118E+00
           4
 -0.1206828E+02 -0.1736160E+02 -0.7219719E+01  -0.0000000E+00 -0.1000000E+01 -0.0000000E+00
 -0.1072001E+02 -0.1736160E+02 -0.1218837E+02  -0.0000000E+00 -0.1000000E+01 -0.0000000E+00
  0.1206828E+02 -0.1736160E+02  0.7219719E+01  -0.0000000E+00 -0.1000000E+01 -0.0000000E+00
  0.1072001E+02 -0.1736160E+02  0.1218837E+02  -0.0000000E+00 -0.1000000E+01 -0.0000000E+00
           4
  0.1072001E+02  0.1736160E+02  0.1218837E+02  -0.4946498E-15  0.1000000E+01  0.8155772E-15
  0.1206828E+02  0.1736160E+02  0.7219719E+01  -0.4946498E-15  0.1000000E+01  0.8155772E-15
 -0.1072001E+02  0.1736160E+02 -0.1218837E+02  -0.4946498E-15  0.1000000E+01  0.8155772E-15
 -0.1206828E+02  0.1736160E+02 -0.7219719E+01  -0.4946498E-15  0.1000000E+01  0.8155772E-15
           4
  0.1206828E+02 -0.1736160E+02  0.7219719E+01   0.9650992E+00 -0.1490511E-15  0.2618845E+00
  0.1206828E+02  0.1736160E+02  0.7219719E+01   0.9650992E+00 -0.1490511E-15  0.2618845E+00
  0.1072001E+02  0.1736160E+02  0.1218837E+02   0.9650992E+00 -0.1490511E-15  0.2618845E+00
  0.1072001E+02 -0.1736160E+02  0.1218837E+02   0.9650992E+00 -0.1490511E-15  0.2618845E+00
 WIGNER-SEITZ-CONVCELL_END
 BRILLOUIN-ZONE-PRIMCELL
           6
 -0.8453026E-01 -0.1439959E-01  0.6776564E-01  -0.1862532E-15 -0.1000000E+01 -0.1077817E-15
  0.5344501E-01 -0.1439959E-01 -0.9424000E-01  -0.1862532E-15 -0.1000000E+01 -0.1077817E-15
  0.7089599E-01 -0.1439959E-01 -0.8192256E-01  -0.1862532E-15 -0.1000000E+01 -0.1077817E-15
  0.8453026E-01 -0.1439959E-01 -0.6776564E-01  -0.1862532E-15 -0.1000000E+01 -0.1077817E-15
 -0.5344501E-01 -0.1439959E-01  0.9424000E-01  -0.1862532E-15 -0.1000000E+01 -0.1077817E-15
 -0.7089599E-01 -0.1439959E-01  0.8192256E-01  -0.1862532E-15 -0.1000000E+01 -0.1077817E-15
           4
  0.8453026E-01  0.1439959E-01 -0.6776564E-01   0.7202774E+00 -0.1532326E-14 -0.6936861E+00
  0.8453026E-01 -0.1439959E-01 -0.6776564E-01   0.7202774E+00 -0.1532326E-14 -0.6936861E+00
  0.7089599E-01 -0.1439959E-01 -0.8192256E-01   0.7202774E+00 -0.1532326E-14 -0.6936861E+00
  0.7089599E-01  0.1439959E-01 -0.8192256E-01   0.7202774E+00 -0.1532326E-14 -0.6936861E+00
           4
 -0.5344501E-01 -0.1439959E-01  0.9424000E-01   0.7613118E+00 -0.0000000E+00  0.6483860E+00
  0.8453026E-01 -0.1439959E-01 -0.6776564E-01   0.7613118E+00 -0.0000000E+00  0.6483860E+00
  0.8453026E-01  0.1439959E-01 -0.6776564E-01   0.7613118E+00 -0.0000000E+00  0.6483860E+00
 -0.5344501E-01  0.1439959E-01  0.9424000E-01   0.7613118E+00 -0.0000000E+00  0.6483860E+00
           4
  0.7089599E-01  0.1439959E-01 -0.8192256E-01   0.5766552E+00  0.3524972E-15 -0.8169876E+00
  0.7089599E-01 -0.1439959E-01 -0.8192256E-01   0.5766552E+00  0.3524972E-15 -0.8169876E+00
  0.5344501E-01 -0.1439959E-01 -0.9424000E-01   0.5766552E+00  0.3524972E-15 -0.8169876E+00
  0.5344501E-01  0.1439959E-01 -0.9424000E-01   0.5766552E+00  0.3524972E-15 -0.8169876E+00
           4
 -0.5344501E-01  0.1439959E-01  0.9424000E-01  -0.5766552E+00  0.2633295E-14  0.8169876E+00
 -0.7089599E-01  0.1439959E-01  0.8192256E-01  -0.5766552E+00  0.2633295E-14  0.8169876E+00
 -0.7089599E-01 -0.1439959E-01  0.8192256E-01  -0.5766552E+00  0.2633295E-14  0.8169876E+00
 -0.5344501E-01 -0.1439959E-01  0.9424000E-01  -0.5766552E+00  0.2633295E-14  0.8169876E+00
           4
 -0.8453026E-01 -0.1439959E-01  0.6776564E-01  -0.7613118E+00  0.8491876E-15 -0.6483860E+00
 -0.8453026E-01  0.1439959E-01  0.6776564E-01  -0.7613118E+00  0.8491876E-15 -0.6483860E+00
  0.5344501E-01  0.1439959E-01 -0.9424000E-01  -0.7613118E+00  0.8491876E-15 -0.6483860E+00
  0.5344501E-01 -0.1439959E-01 -0.9424000E-01  -0.7613118E+00  0.8491876E-15 -0.6483860E+00
           4
 -0.7089599E-01  0.1439959E-01  0.8192256E-01  -0.7202774E+00 -0.7555036E-15  0.6936861E+00
 -0.8453026E-01  0.1439959E-01  0.6776564E-01  -0.7202774E+00 -0.7555036E-15  0.6936861E+00
 -0.8453026E-01 -0.1439959E-01  0.6776564E-01  -0.7202774E+00 -0.7555036E-15  0.6936861E+00
 -0.7089599E-01 -0.1439959E-01  0.8192256E-01  -0.7202774E+00 -0.7555036E-15  0.6936861E+00
           6
 -0.7089599E-01  0.1439959E-01  0.8192256E-01  -0.1862532E-15  0.1000000E+01 -0.8383020E-16
 -0.5344501E-01  0.1439959E-01  0.9424000E-01  -0.1862532E-15  0.1000000E+01 -0.8383020E-16
  0.8453026E-01  0.1439959E-01 -0.6776564E-01  -0.1862532E-15  0.1000000E+01 -0.8383020E-16
  0.7089599E-01  0.1439959E-01 -0.8192256E-01  -0.1862532E-15  0.1000000E+01 -0.8383020E-16
  0.5344501E-01  0.1439959E-01 -0.9424000E-01  -0.1862532E-15  0.1000000E+01 -0.8383020E-16
 -0.8453026E-01  0.1439959E-01  0.6776564E-01  -0.1862532E-15  0.1000000E+01 -0.8383020E-16
 BRILLOUIN-ZONE-PRIMCELL_END
 BRILLOUIN-ZONE-CONVCELL
           6
 -0.8453026E-01 -0.1439959E-01  0.6776564E-01  -0.1862532E-15 -0.1000000E+01 -0.1077817E-15
  0.5344501E-01 -0.1439959E-01 -0.9424000E-01  -0.1862532E-15 -0.1000000E+01 -0.1077817E-15
  0.7089599E-01 -0.1439959E-01 -0.8192256E-01  -0.1862532E-15 -0.1000000E+01 -0.1077817E-15
  0.8453026E-01 -0.1439959E-01 -0.6776564E-01  -0.1862532E-15 -0.1000000E+01 -0.1077817E-15
 -0.5344501E-01 -0.1439959E-01  0.9424000E-01  -0.1862532E-15 -0.1000000E+01 -0.1077817E-15
 -0.7089599E-01 -0.1439959E-01  0.8192256E-01  -0.1862532E-15 -0.1000000E+01 -0.1077817E-15
           4
  0.8453026E-01  0.1439959E-01 -0.6776564E-01   0.7202774E+00 -0.1532326E-14 -0.6936861E+00
  0.8453026E-01 -0.1439959E-01 -0.6776564E-01   0.7202774E+00 -0.1532326E-14 -0.6936861E+00
  0.7089599E-01 -0.1439959E-01 -0.8192256E-01   0.7202774E+00 -0.1532326E-14 -0.6936861E+00
  0.7089599E-01  0.1439959E-01 -0.8192256E-01   0.7202774E+00 -0.1532326E-14 -0.6936861E+00
           4
 -0.5344501E-01 -0.1439959E-01  0.9424000E-01   0.7613118E+00 -0.0000000E+00  0.6483860E+00
  0.8453026E-01 -0.1439959E-01 -0.6776564E-01   0.7613118E+00 -0.0000000E+00  0.6483860E+00
  0.8453026E-01  0.1439959E-01 -0.6776564E-01   0.7613118E+00 -0.0000000E+00  0.6483860E+00
 -0.5344501E-01  0.1439959E-01  0.9424000E-01   0.7613118E+00 -0.0000000E+00  0.6483860E+00
           4
  0.7089599E-01  0.1439959E-01 -0.8192256E-01   0.5766552E+00  0.3524972E-15 -0.8169876E+00
  0.7089599E-01 -0.1439959E-01 -0.8192256E-01   0.5766552E+00  0.3524972E-15 -0.8169876E+00
  0.5344501E-01 -0.1439959E-01 -0.9424000E-01   0.5766552E+00  0.3524972E-15 -0.8169876E+00
  0.5344501E-01  0.1439959E-01 -0.9424000E-01   0.5766552E+00  0.3524972E-15 -0.8169876E+00
           4
 -0.5344501E-01  0.1439959E-01  0.9424000E-01  -0.5766552E+00  0.2633295E-14  0.8169876E+00